/*--------------------------------*- C++ -*----------------------------------*\
| =========                 |                                                 |
| \\      /  F ield         | OpenFOAM: The Open Source CFD Toolbox           |
|  \\    /   O peration     | Version:  v2106                                 |
|   \\  /    A nd           | Website:  www.openfoam.com                      |
|    \\/     M anipulation  |                                                 |
\*---------------------------------------------------------------------------*/
FoamFile
{
    version     2.0;
    format      ascii;
    arch        "LSB;label=32;scalar=64";
    class       volScalarField;
    location    "4";
    object      p;
}
// * * * * * * * * * * * * * * * * * * * * * * * * * * * * * * * * * * * * * //

dimensions      [1 -1 -2 0 0 0 0];

internalField   nonuniform List<scalar> 
5250
(
1
1
1
1
1
1
1
1
1.00002
1.0001
1.00138
1.00992
1.10694
1.71336
4.20689
10.7631
11.3782
11.0738
11.3685
11.6244
11.7361
11.9025
12.0189
12.1094
12.1576
1
1
1
1
1
1
1
1
1.00002
1.0001
1.00134
1.00966
1.10406
1.69803
4.15084
10.6718
11.4142
11.0559
11.3574
11.6108
11.7185
11.8864
12.0044
12.0949
12.143
1
1
1
1
1
1
1
1
1.00002
1.00009
1.00132
1.009
1.10135
1.66454
4.01919
10.4246
11.4878
10.9894
11.3095
11.5578
11.6622
11.8244
11.9384
12.0238
12.0675
1
1
1
1
1
1
1
1
1.00001
1.00009
1.00113
1.00875
1.08934
1.61382
3.83606
10.0715
11.6108
10.8949
11.2291
11.4841
11.5773
11.7367
11.8406
11.9247
11.9628
1
1
1
1
1
1
1
1
1.00001
1.0001
1.00093
1.00813
1.07193
1.54376
3.58059
9.5699
11.7416
10.7664
11.1401
11.368
11.4624
11.6093
11.7127
11.7833
11.8271
1
1
1
1
1
1
1
1
1.00001
1.00009
1.00077
1.00686
1.06022
1.46568
3.26538
8.94836
11.9449
10.6222
11.0587
11.2531
11.3223
11.4535
11.5295
11.6121
11.6154
1
1
1
1
1
1
1
1
1.00001
1.00007
1.00056
1.0053
1.04365
1.36841
2.86305
8.10995
12.1634
10.5214
10.9424
11.1182
11.1819
11.2783
11.3244
11.3373
11.3805
1
1
1
1
1
1
1
1
1.00001
1.00005
1.00042
1.00385
1.03209
1.29257
2.55444
7.17008
12.2608
10.3806
10.813
10.9662
11.0153
11.0465
11.0773
11.0777
10.9674
1
1
1
1
1
1
1
1
1
1.00003
1.00026
1.00278
1.02286
1.22627
2.26222
6.26632
11.9559
10.4314
10.6877
10.8674
10.7664
10.8233
10.7006
10.6311
10.4014
1
1
1
1
1
1
1
1
1
1.00003
1.00018
1.0023
1.01693
1.17595
2.03289
5.4666
11.2466
10.377
10.5349
10.6852
10.4831
10.5248
10.2794
10.2917
9.36876
1
1
1
1
1
1
1
1
1
1.00003
1.00011
1.00188
1.01176
1.14003
1.80728
4.6195
10.2651
10.3819
10.3718
10.4159
10.2615
10.1419
9.6839
9.36587
6.92238
1
1
1
1
1
1
1
1
1
1.00002
1.00009
1.00114
1.00853
1.08822
1.60381
3.82953
9.11727
10.5142
10.1734
10.0343
9.922
9.72436
9.1282
8.61792
6.71071
1
1
1
1
1
1
1
1
1
1
1.0001
1.00041
1.00663
1.04175
1.42183
3.12759
7.84961
10.5681
9.88347
9.71402
9.58481
9.35122
8.77594
8.14132
6.78602
1
1
1
1
1
1
1
1
1
1.00001
1.00005
1.0004
1.00375
1.0298
1.2742
2.47171
6.54474
10.5539
9.59986
9.53705
9.3688
9.06739
8.51425
7.88492
6.77207
1
1
1
1
1
1
1
1
1
1
1.00002
1.00023
1.00181
1.01733
1.18324
2.07576
5.38721
9.9555
9.52079
9.3272
9.14334
8.8019
8.29804
7.66742
6.74235
1
1
1
1
1
1
1
1
1
1
1.00002
1.0001
1.00155
1.01051
1.11542
1.72877
4.30066
8.76965
9.49737
9.16416
8.89103
8.53334
8.08238
7.50664
6.72289
1
1
1
1
1
1
1
1
1
1
1.00001
1.00009
1.00083
1.00707
1.06361
1.46852
3.2989
7.29346
9.42495
8.942
8.62797
8.31325
7.9215
7.41193
6.71782
1
1
1
1
1
1
1
1
1
1
1
1.00005
1.00028
1.00347
1.02583
1.25355
2.38135
5.86987
9.22121
8.77241
8.47504
8.18507
7.8111
7.33409
6.71289
1
1
1
1
1
1
1
1
1
1
1
1.00003
1.00017
1.00212
1.01506
1.15323
1.92456
4.59632
8.35185
8.78639
8.44108
8.09833
7.71108
7.25003
6.68953
1
1
1
1
1
1
1
1
1
1
1
1.00001
1.00011
1.00101
1.00839
1.07318
1.53249
3.44599
6.97617
8.67083
8.3107
7.95057
7.58645
7.1664
6.66323
1
1
1
1
1
1
1
1
1
1
1
1
1.00006
1.0003
1.00383
1.02653
1.26732
2.39417
5.52432
8.33794
8.16533
7.85813
7.51016
7.11188
6.64795
1
1
1
1
1
1
1
1
1
1
1
1
1.00003
1.00022
1.00195
1.01593
1.1345
1.86526
4.15807
7.40755
8.16755
7.85919
7.48213
7.08433
6.64504
1
1
1
1
1
1
1
1
1
1
1
1
1
1.0001
1.00051
1.00676
1.04612
1.44641
3.0057
6.01178
7.97379
7.7317
7.41368
7.04066
6.63129
1
1
1
1
1
1
1
1
1
1
1
1
1.00001
1.00004
1.00034
1.0029
1.0225
1.18738
2.08165
4.53094
7.27991
7.67412
7.37294
7.02634
6.63753
1
1
1
1
1
1
1
1
1
1
1
1
1
1
1.00016
1.00058
1.00992
1.05932
1.59268
3.2987
6.06023
7.56396
7.32282
7.01847
6.66421
1
1
1
1
1
1
1
1
1
1
1
1
1
1.00001
1.00006
1.00042
1.00358
1.02616
1.22074
2.19742
4.64885
7.03488
7.31454
7.01788
6.69428
1
1
1
1
1
1
1
1
1
1
1
1
1
1
1
1.0002
1.00055
1.01164
1.06819
1.66927
3.37457
5.93447
7.25089
7.0249
6.73183
1
1
1
1
1
1
1
1
1
1
1
1
1
1
1.00001
1.00006
1.00046
1.00391
1.02744
1.23694
2.23721
4.54186
6.71951
7.02073
6.74934
1
1
1
1
1
1
1
1
1
1
1
1
1
1
1
1.00004
1.00024
1.00014
1.01014
1.06233
1.62525
3.22755
5.67322
6.9653
6.76984
1
1
1
1
1
1
1
1
1
1
1
1
1
1
1
1.00001
1.00006
1.00051
1.00411
1.03032
1.2462
2.39122
4.40799
6.37647
6.82502
1
1
1
1
1
1
1
1
1
1
1
1
1
1
1
1
1.00002
1.00012
1.00086
1.0078
1.05801
1.47243
2.90041
4.99161
6.40001
1
1
1
1
1
1
1
1
1
1
1
1
1
1
1
1
1.00001
1.00005
1.00033
1.00421
1.02587
1.00761
1.84444
3.76954
5.74051
1
1
1
1
1
1
1
1
1
1
1
1
1
1
1
1
0.999999
1.00001
1.00011
1.00066
1.00697
1.04118
1.37625
2.59536
4.59771
1
1
1
1
1
1
1
1
1
1
1
1
1
1
1
1
1
1.00001
1.00002
1.00029
1.0013
1.01338
1.05393
1.71683
3.29309
1
1
1
1
1
1
1
1
1
1
1
1
1
1
1
1
1
1
1.00001
1.00009
1.00073
1.00538
1.03885
1.30109
2.45459
1
1
1
1
1
1
1
1
1
1
1
1
1
1
1
1
1
1
1
1.00002
1.00014
1.001
1.00768
1.05083
1.4868
1
1
1
1
1
1
1
1
1
1
1
1
1
1
1
1
1
1
1
1.00001
1.00012
1.00072
1.00058
1.01863
0.99507
1
1
1
1
1
1
1
1
1
1
1
1
1
1
1
1
1
1
1
1
1.00001
1.00013
1.00053
1.00592
1.03341
1
1
1
1
1
1
1
1
1
1
1
1
1
1
1
1
1
1
1
1
1.00001
1.00004
1.00016
1.00112
1.00693
1
1
1
1
1
1
1
1
1
1
1
1
1
1
1
1
1
1
1
1
1
0.999991
1.00006
1.00025
1.00404
1
1
1
1
1
1
1
1
1
1
1
1
1
1
1
1
1
1
1
1
1
1
1.00001
1.00011
1.00053
1
1
1
1
1
1
1
1
1
1
1
1
1
1
1
1
1
1
1
1
1
1
1
1.00003
1.00021
1
1
1
1
1
1
1
1
1
1
1
1
1
1
1
1
1
1
1
1
1
1
1
1.00002
1.0001
1
1
1
1
1
1
1
1
1
1
1
1
1
1
1
1
1
1
1
1
1
1
1
1
1.00002
1
1
1
1
1
1
1
1
1
1
1
1
1
1
1
1
1
1
1
1
1
1
1
1
1.00002
1
1
1
1
1
1
1
1
1
1
1
1
1
1
1
1
1
1
1
1
1
1
1
1
1.00001
1
1
1
1
1
1
1
1
1
1
1
1
1
1
1
1
1
1
1
1
1
1
1
1
1.00001
1
1
1
1
1
1
1
1
1
1
1
1
1
1
1
1
1
1
1
1
1
1
1
1
1.00001
1
1
1
1
1
1
1
1
1
1
1
1
1
1
1
1
1
1
1
1
1
1
1
1
1.00001
1
1
1
1
1
1
1
1
1
1
1
1
1
1
1
1
1
1
1
1
1
1
1
1
1.00001
2.96229
3.70985
4.20838
3.74676
4.02561
3.91673
3.64178
3.21379
2.91939
2.79317
2.77739
2.80099
2.64086
2.40167
2.28316
2.25418
2.25816
2.25866
2.25652
2.25137
2.24343
2.23181
2.21992
2.21485
2.21442
2.21571
2.22508
2.23957
2.27209
2.31605
2.38499
2.47718
2.5881
2.71635
2.8411
2.95056
3.08453
3.24927
3.42959
3.57864
3.71748
3.89428
4.07824
4.22434
4.39184
4.52718
4.61246
4.68917
4.77541
4.84547
4.90068
4.94398
4.98217
4.99914
5.00148
4.99551
4.98043
4.96488
4.9422
4.91608
4.88843
4.85733
4.82224
4.78551
4.74615
4.70597
4.66453
4.62268
4.58083
4.5388
4.49751
4.4575
4.41857
4.38135
4.34572
4.31124
4.27854
4.24793
4.22084
4.19614
4.17634
4.16
4.1472
4.13967
4.13769
4.1396
4.1481
4.16431
4.18758
4.21744
4.25226
4.29115
4.33212
4.37224
4.40894
4.44292
4.4706
4.49585
4.51154
4.52462
4.44534
4.39102
3.87007
3.8722
4.27233
4.0456
3.73676
3.14229
2.85223
2.73248
2.69565
2.66075
2.5512
2.38844
2.29678
2.26719
2.26678
2.2665
2.26778
2.26443
2.26168
2.24686
2.2265
2.21158
2.20785
2.20655
2.21966
2.23873
2.27611
2.32836
2.39497
2.48184
2.58042
2.69504
2.81098
2.91713
3.04724
3.20495
3.40471
3.59022
3.74274
3.90182
4.09344
4.23441
4.38275
4.50981
4.59968
4.66681
4.75636
4.83389
4.89409
4.93539
4.97433
4.99246
4.99448
4.9911
4.97687
4.96141
4.93885
4.91106
4.88374
4.85364
4.81894
4.78249
4.74321
4.70309
4.66116
4.61929
4.57754
4.53538
4.49423
4.45442
4.41581
4.37875
4.34325
4.30875
4.27535
4.24517
4.21698
4.19359
4.17395
4.15681
4.14402
4.13699
4.1349
4.13726
4.14556
4.16151
4.18498
4.21541
4.25046
4.29026
4.33156
4.37183
4.40946
4.44378
4.47169
4.49755
4.51347
4.52574
5.2725
4.74609
4.2765
4.11186
4.08142
3.85451
3.42927
3.02084
2.82836
2.7477
2.75893
2.78506
2.77269
2.48673
2.23671
2.1988
2.22141
2.24976
2.25349
2.24726
2.24035
2.22888
2.22462
2.21861
2.2212
2.22048
2.22792
2.23302
2.2633
2.29988
2.36356
2.45987
2.57003
2.69809
2.83457
2.96136
3.08242
3.22166
3.40463
3.53888
3.66595
3.83292
4.03193
4.19049
4.3612
4.4975
4.59084
4.66042
4.73263
4.80459
4.86027
4.90854
4.9442
4.96482
4.97195
4.96886
4.95472
4.94088
4.92126
4.89611
4.87014
4.84114
4.80702
4.77152
4.73443
4.69568
4.65539
4.6136
4.5717
4.52938
4.48831
4.44803
4.40985
4.37261
4.33694
4.30147
4.26891
4.2376
4.21097
4.18777
4.16673
4.14861
4.13496
4.12642
4.12379
4.12641
4.13444
4.14979
4.17283
4.20331
4.23962
4.28134
4.32531
4.36977
4.41086
4.44786
4.47832
4.50652
4.52481
4.53469
5.50457
4.80432
4.36898
4.10956
4.06012
3.87669
3.54509
3.1468
2.92397
2.78952
2.72419
2.68582
2.51998
2.28021
2.23242
2.2574
2.27763
2.2759
2.27449
2.26757
2.27529
2.26089
2.23472
2.20574
2.20321
2.19122
2.21273
2.2245
2.26114
2.31652
2.37941
2.46341
2.55474
2.66534
2.77182
2.88052
3.01136
3.1507
3.35279
3.53753
3.68479
3.81946
3.9828
4.13088
4.2795
4.43074
4.53308
4.60105
4.67434
4.74511
4.81971
4.87181
4.90921
4.93701
4.94398
4.94435
4.93595
4.92294
4.90247
4.87608
4.8513
4.82575
4.7946
4.76047
4.72365
4.68458
4.64449
4.6041
4.56239
4.52021
4.47826
4.43893
4.40111
4.36416
4.32753
4.29348
4.25915
4.22972
4.20242
4.17828
4.15549
4.13656
4.12339
4.11549
4.11135
4.11321
4.1207
4.13532
4.15775
4.18855
4.22598
4.26946
4.31621
4.36577
4.41273
4.45409
4.48845
4.52134
4.54157
4.55007
5.67697
4.96622
4.45876
4.18501
4.09352
3.9148
3.54361
3.12396
2.90447
2.77415
2.72202
2.70485
2.62762
2.45045
2.31077
2.22819
2.22624
2.2465
2.25418
2.24567
2.23674
2.22157
2.21896
2.21158
2.22344
2.2204
2.2291
2.22464
2.24883
2.2764
2.33063
2.43244
2.53826
2.65511
2.77755
2.89717
3.00658
3.12229
3.27052
3.4228
3.57857
3.73728
3.86641
4.0326
4.17639
4.3405
4.46049
4.55648
4.62405
4.68355
4.75952
4.81876
4.85484
4.88294
4.9022
4.89395
4.89162
4.88514
4.87206
4.85015
4.82474
4.80141
4.7713
4.73819
4.70555
4.669
4.62995
4.58842
4.54711
4.50625
4.4656
4.42708
4.38903
4.352
4.31667
4.2812
4.24771
4.21812
4.19128
4.16773
4.14522
4.12156
4.10597
4.09882
4.09589
4.09683
4.1024
4.11499
4.13608
4.16628
4.20432
4.24972
4.29993
4.35517
4.41039
4.46047
4.50346
4.54244
4.5687
4.57707
5.83162
5.14865
4.64339
4.29655
4.15945
3.96928
3.65897
3.27808
2.99479
2.85477
2.74732
2.6865
2.55937
2.38277
2.27881
2.24598
2.26332
2.27502
2.27095
2.26038
2.26307
2.25321
2.2424
2.21646
2.21588
2.19904
2.21811
2.22581
2.25616
2.30025
2.3496
2.41581
2.49488
2.58442
2.69242
2.80458
2.90709
3.02249
3.14311
3.29271
3.47828
3.64333
3.77251
3.92943
4.05045
4.18786
4.32155
4.44962
4.53853
4.61142
4.6837
4.74394
4.7802
4.81823
4.84541
4.85048
4.85486
4.83997
4.82597
4.82029
4.79852
4.77672
4.74962
4.7148
4.68335
4.64916
4.61249
4.57289
4.53149
4.48987
4.45056
4.41314
4.37661
4.34035
4.30397
4.26838
4.2363
4.20522
4.17895
4.15485
4.13047
4.10901
4.09088
4.08058
4.07832
4.07985
4.08485
4.09559
4.1144
4.143
4.18122
4.22835
4.2822
4.34296
4.40641
4.46871
4.52216
4.57131
4.60228
4.61047
5.93988
5.27234
4.78524
4.45621
4.26296
4.03031
3.77453
3.47056
3.1599
2.92769
2.80155
2.71717
2.59637
2.45138
2.33269
2.2708
2.25371
2.25378
2.25799
2.25195
2.24543
2.2327
2.22546
2.2156
2.22999
2.23115
2.25144
2.27101
2.29649
2.31356
2.34214
2.38063
2.428
2.48353
2.56335
2.65731
2.76267
2.88383
2.97301
3.10658
3.27612
3.42897
3.58657
3.74842
3.90113
4.06626
4.1922
4.31126
4.40943
4.50912
4.59552
4.66143
4.70776
4.74625
4.77291
4.79075
4.79512
4.79401
4.78629
4.77897
4.76449
4.7402
4.72056
4.68748
4.65626
4.62372
4.58611
4.5464
4.50787
4.47129
4.43474
4.39798
4.36117
4.32521
4.28954
4.255
4.2211
4.19024
4.16408
4.13968
4.11522
4.09615
4.0778
4.06491
4.0599
4.06052
4.0649
4.07442
4.09128
4.11771
4.15447
4.20201
4.2586
4.32436
4.3962
4.47198
4.54374
4.60377
4.63885
4.65237
6.01119
5.39321
4.90824
4.57747
4.32658
4.13237
3.87628
3.58931
3.30567
3.04805
2.88487
2.78802
2.66341
2.51764
2.37259
2.29073
2.25823
2.25889
2.26636
2.26134
2.25227
2.24437
2.24578
2.24018
2.24944
2.27565
2.30694
2.36827
2.41304
2.42162
2.42292
2.3998
2.39794
2.41796
2.46035
2.51286
2.58426
2.6698
2.73687
2.85147
2.98525
3.11644
3.27512
3.45796
3.65506
3.86421
4.05456
4.19842
4.28181
4.36947
4.44078
4.53371
4.612
4.68358
4.71648
4.72871
4.72742
4.73414
4.73921
4.73175
4.72293
4.70293
4.68876
4.66421
4.63109
4.60043
4.56244
4.52555
4.49201
4.4571
4.42065
4.38333
4.34632
4.30979
4.27523
4.24005
4.20521
4.17572
4.15002
4.12438
4.10199
4.07987
4.06327
4.04954
4.04263
4.04126
4.04498
4.05388
4.06955
4.09401
4.1288
4.17558
4.23384
4.30474
4.38538
4.47563
4.56772
4.63867
4.68429
4.70092
6.06101
5.48247
5.01466
4.66759
4.40848
4.22288
3.99606
3.74605
3.46644
3.23295
3.02876
2.88216
2.74756
2.5798
2.42854
2.32904
2.27909
2.26281
2.26238
2.2647
2.26019
2.25751
2.24795
2.26211
2.26952
2.3752
2.41743
2.61334
2.68415
2.66742
2.609
2.5133
2.44836
2.42675
2.43286
2.45213
2.48707
2.52711
2.57621
2.65192
2.72952
2.8134
2.94369
3.08047
3.25769
3.48191
3.73037
3.98454
4.20527
4.30449
4.35381
4.39694
4.46033
4.55653
4.62242
4.67546
4.693
4.6788
4.68152
4.67638
4.67675
4.66089
4.64033
4.62244
4.59374
4.566
4.53568
4.50166
4.47009
4.4392
4.40262
4.36466
4.32823
4.29294
4.25766
4.22195
4.19039
4.16016
4.13408
4.10945
4.08639
4.0661
4.04885
4.03393
4.02502
4.02196
4.02477
4.03261
4.04691
4.06969
4.10272
4.14808
4.20718
4.2811
4.37019
4.47463
4.5864
4.67624
4.7302
4.75122
6.09649
5.56493
5.10747
4.75929
4.49631
4.30957
4.10736
3.86509
3.62284
3.38691
3.18466
3.01069
2.86142
2.6879
2.5318
2.3975
2.31353
2.27712
2.26386
2.26295
2.25736
2.26283
2.25661
2.29283
2.32981
2.53133
2.74519
3.0471
3.08071
3.02378
2.89829
2.74087
2.61594
2.54359
2.49587
2.47051
2.46423
2.47354
2.49738
2.52943
2.55724
2.60835
2.68599
2.75736
2.89444
3.05912
3.24705
3.5145
3.83168
4.11248
4.30146
4.36233
4.37793
4.40727
4.47035
4.54736
4.61809
4.64619
4.64993
4.63469
4.62076
4.61117
4.59944
4.5907
4.56432
4.53404
4.51084
4.4844
4.44889
4.41623
4.38285
4.34501
4.30729
4.27226
4.23692
4.20445
4.17295
4.14344
4.11798
4.09441
4.07311
4.05417
4.03431
4.01854
4.00747
4.00368
4.00562
4.01251
4.02505
4.0456
4.07672
4.12105
4.1807
4.25795
4.35517
4.47258
4.60686
4.71712
4.78247
4.81223
6.13387
5.63562
5.19705
4.84883
4.5831
4.38594
4.19396
3.97079
3.75497
3.53262
3.32114
3.1333
2.97031
2.80342
2.64167
2.49218
2.37739
2.30114
2.26724
2.259
2.25915
2.26573
2.28853
2.34849
2.49863
2.8816
3.43994
3.57134
3.52133
3.40679
3.19731
2.9845
2.82355
2.7078
2.62531
2.5655
2.52545
2.50059
2.48847
2.48956
2.49199
2.51236
2.5367
2.57255
2.64957
2.71149
2.82853
3.02556
3.263
3.55011
3.9209
4.25058
4.38751
4.37036
4.37296
4.41722
4.47041
4.53839
4.58089
4.59145
4.58012
4.5676
4.54975
4.53973
4.5276
4.50101
4.47403
4.45517
4.43265
4.39809
4.36238
4.32201
4.2835
4.24894
4.21745
4.18678
4.15425
4.12808
4.10346
4.07824
4.05592
4.03742
4.01833
4.00212
3.9898
3.98469
3.98612
3.9923
4.00373
4.02258
4.05158
4.09406
4.15366
4.23345
4.33739
4.46808
4.62457
4.75748
4.84111
4.87658
6.16612
5.69763
5.27458
4.92889
4.66588
4.462
4.2685
4.07248
3.87886
3.66112
3.45462
3.26017
3.08211
2.90984
2.74532
2.58377
2.44345
2.34189
2.28507
2.25943
2.26259
2.27801
2.32882
2.44842
2.77469
3.40299
4.11999
4.08989
3.97792
3.77269
3.50818
3.28749
3.10595
2.95767
2.84358
2.7488
2.67161
2.603
2.54882
2.50933
2.48657
2.47874
2.47416
2.4806
2.49598
2.51129
2.57991
2.67929
2.7907
2.99667
3.30527
3.65706
4.07879
4.34561
4.41559
4.37498
4.36301
4.39806
4.45975
4.50835
4.53133
4.52575
4.51033
4.48873
4.47981
4.46916
4.44938
4.42074
4.40064
4.36899
4.33285
4.29896
4.26514
4.23249
4.20048
4.16666
4.13764
4.11405
4.09033
4.06651
4.04264
4.02072
4.00228
3.98565
3.97349
3.96579
3.96492
3.96983
3.98111
3.99974
4.02741
4.06774
4.12629
4.20798
4.31927
4.46405
4.64351
4.80501
4.90708
4.95113
6.1879
5.75143
5.34806
5.00588
4.74345
4.53158
4.34046
4.16526
3.97572
3.77133
3.57473
3.38232
3.20347
3.02486
2.85257
2.68699
2.52643
2.39966
2.31374
2.26843
2.27546
2.31456
2.41455
2.65106
3.21493
4.04995
4.5787
4.55726
4.39104
4.10884
3.84645
3.62541
3.42847
3.25802
3.10635
2.97974
2.86775
2.7741
2.69558
2.62666
2.56271
2.50993
2.47254
2.44522
2.43347
2.43651
2.44995
2.4831
2.52119
2.62747
2.76876
2.99142
3.34076
3.78203
4.21438
4.40266
4.38584
4.34488
4.33972
4.37484
4.43166
4.46521
4.47722
4.46265
4.43412
4.41732
4.4059
4.3911
4.36847
4.34074
4.30685
4.27594
4.24455
4.21435
4.18131
4.14891
4.12377
4.09749
4.06947
4.04786
4.0285
4.00692
3.98828
3.96869
3.95477
3.94813
3.94647
3.94962
3.95886
3.97612
4.00356
4.04374
4.10151
4.18372
4.29993
4.45735
4.66191
4.85638
4.98061
5.03404
6.22093
5.8087
5.4238
5.08698
4.82091
4.60028
4.41639
4.24615
4.0632
3.87666
3.6886
3.49645
3.31414
3.1395
2.95678
2.78787
2.62639
2.47587
2.36102
2.2985
2.31299
2.39558
2.60189
3.09214
3.95985
4.76657
4.90955
4.80651
4.59254
4.35329
4.13396
3.91352
3.70372
3.51613
3.35352
3.21329
3.08546
2.97368
2.8733
2.77934
2.69068
2.6191
2.55388
2.49851
2.45964
2.42826
2.40823
2.40262
2.40274
2.42933
2.46772
2.57588
2.76963
3.053
3.4356
3.94986
4.31626
4.42517
4.33805
4.29312
4.31332
4.35954
4.40545
4.42206
4.41313
4.39102
4.36372
4.34331
4.3264
4.30494
4.28106
4.25067
4.22033
4.18962
4.15874
4.13362
4.10602
4.07864
4.05377
4.03336
4.01105
3.98847
3.9694
3.95283
3.93686
3.9284
3.92733
3.93059
3.93833
3.95295
3.97758
4.01599
4.0738
4.15865
4.28234
4.4527
4.68482
4.9192
5.07466
5.13108
6.27283
5.87743
5.50494
5.16641
4.89608
4.67191
4.48337
4.31259
4.13502
3.96336
3.78407
3.60087
3.42107
3.24222
3.06269
2.88671
2.72652
2.56175
2.43186
2.382
2.41463
2.57742
2.98826
3.76655
4.67744
5.11504
5.02169
4.89237
4.74177
4.58256
4.39429
4.18554
3.97516
3.78067
3.60475
3.44544
3.30155
3.17381
3.05544
2.94476
2.85029
2.7681
2.68594
2.61145
2.54528
2.47856
2.42048
2.37894
2.36092
2.35409
2.35289
2.38397
2.44253
2.56225
2.77479
3.11652
3.57922
4.11521
4.38114
4.37882
4.29228
4.25734
4.2752
4.31036
4.34403
4.35082
4.34066
4.31098
4.28578
4.26359
4.24856
4.23291
4.20419
4.16564
4.13368
4.11019
4.08517
4.05938
4.03547
4.01319
3.99236
3.97069
3.94808
3.93329
3.92262
3.91232
3.90694
3.9096
3.91771
3.93201
3.95476
3.9906
4.04669
4.13314
4.26378
4.45091
4.71438
4.99825
5.1788
5.2366
6.32631
5.94995
5.58721
5.24704
4.96834
4.74174
4.54438
4.36782
4.19814
4.0303
3.84972
3.67976
3.51839
3.34324
3.17463
3.00071
2.82608
2.64338
2.54131
2.54504
2.63493
2.95838
3.64766
4.57251
5.07016
5.1037
5.07105
5.00874
4.9063
4.76635
4.59335
4.39806
4.20189
4.00877
3.82772
3.659
3.50765
3.37139
3.23899
3.11968
3.01789
2.92166
2.82386
2.7278
2.63642
2.56127
2.49701
2.43919
2.3919
2.35149
2.32514
2.30875
2.30734
2.3327
2.41179
2.57182
2.8242
3.2046
3.7238
4.21481
4.39991
4.32708
4.21315
4.19436
4.21894
4.25623
4.27973
4.28343
4.26626
4.24028
4.21045
4.19037
4.16604
4.14204
4.11776
4.09073
4.06429
4.03938
4.01314
3.98578
3.9668
3.95164
3.93342
3.91427
3.90232
3.89589
3.89002
3.88966
3.89487
3.90719
3.92861
3.96301
4.01785
4.10566
4.24529
4.45054
4.75629
5.10104
5.30915
5.34952
6.38668
6.02363
5.66578
5.32651
5.03424
4.80444
4.59876
4.41453
4.25484
4.0925
3.91871
3.75332
3.58386
3.4231
3.26013
3.09665
2.92483
2.77583
2.69139
2.77625
3.04031
3.61474
4.47203
5.01925
5.12179
5.1206
5.10588
5.06864
4.99699
4.88867
4.74982
4.58668
4.40758
4.22376
4.04257
3.86804
3.70809
3.55562
3.41763
3.29217
3.17818
3.06358
2.9535
2.85399
2.76373
2.68596
2.61559
2.54194
2.47098
2.40228
2.34748
2.29864
2.27045
2.2463
2.26228
2.29487
2.38715
2.57366
2.89259
3.34909
3.93801
4.28105
4.33597
4.25526
4.18236
4.17136
4.19009
4.22284
4.22629
4.22156
4.19525
4.15466
4.12783
4.10921
4.08764
4.066
4.04323
4.01743
3.9957
3.97079
3.94552
3.92632
3.91415
3.90069
3.88523
3.87499
3.87098
3.87067
3.87408
3.88314
3.90126
3.93348
3.98815
4.07871
4.22988
4.45826
4.82016
5.22905
5.44479
5.47413
6.44372
6.09124
5.74122
5.40355
5.09718
4.85896
4.64814
4.45974
4.30219
4.14393
3.98423
3.83163
3.66279
3.50877
3.3474
3.17625
3.02695
2.94928
2.96207
3.18488
3.73045
4.52938
5.06643
5.15508
5.13888
5.13137
5.12823
5.11225
5.06806
4.98753
4.87303
4.73184
4.57158
4.40292
4.23043
4.05987
3.89474
3.73786
3.59683
3.46073
3.32916
3.20451
3.10104
3.00081
2.90468
2.81127
2.71892
2.63161
2.55284
2.48049
2.40925
2.34429
2.28898
2.24141
2.20966
2.18599
2.21761
2.27554
2.39181
2.64373
2.98258
3.47277
4.06
4.32316
4.27697
4.15509
4.10968
4.11928
4.14259
4.16306
4.16074
4.1371
4.10833
4.07626
4.05045
4.03423
4.01707
3.99654
3.97425
3.95324
3.93037
3.90756
3.88981
3.87927
3.86958
3.85755
3.84875
3.8458
3.84924
3.85736
3.87288
3.90137
3.95424
4.04878
4.21463
4.48146
4.91475
5.37414
5.59088
5.60179
6.46441
6.15219
5.8153
5.48278
5.16292
4.90665
4.692
4.50265
4.34682
4.19477
4.03867
3.88761
3.74071
3.6006
3.44464
3.28843
3.19672
3.20726
3.40457
3.90639
4.6816
5.25012
5.30609
5.22879
5.17485
5.16377
5.16283
5.15079
5.11709
5.05574
4.96503
4.84656
4.70613
4.55169
4.38612
4.22247
4.06168
3.90822
3.75976
3.61831
3.48466
3.36197
3.25001
3.13513
3.02396
2.91727
2.82016
2.726
2.64232
2.56554
2.4895
2.41749
2.34855
2.27706
2.22231
2.19012
2.17095
2.15721
2.1841
2.24133
2.37439
2.68168
3.12096
3.71088
4.1587
4.26771
4.18506
4.0869
4.05567
4.07069
4.07916
4.08331
4.07372
4.05487
4.03348
4.01036
3.98773
3.97265
3.95387
3.93423
3.91549
3.89532
3.87419
3.85658
3.84506
3.83647
3.82825
3.8218
3.82154
3.82777
3.84193
3.86896
3.9209
4.02143
4.20451
4.52459
5.04371
5.54339
5.76187
5.74751
6.52584
6.19626
5.87284
5.55135
5.23086
4.95291
4.73574
4.54236
4.38847
4.25163
4.10414
3.94936
3.8152
3.67944
3.53368
3.4454
3.43876
3.62338
4.12899
4.97451
5.49155
5.5536
5.42164
5.2929
5.23682
5.22058
5.20467
5.18384
5.15258
5.10385
5.03268
4.93703
4.8154
4.67673
4.52025
4.36427
4.20208
4.04643
3.8902
3.75075
3.61982
3.48707
3.36196
3.23426
3.1259
3.01945
2.91834
2.81657
2.72456
2.63934
2.55915
2.48009
2.40899
2.34883
2.28714
2.22754
2.17108
2.12959
2.11247
2.07939
2.14104
2.2498
2.4553
2.80125
3.30016
3.91784
4.21326
4.19117
4.08706
4.01451
3.99447
4.00011
4.0102
4.00871
4.004
3.9886
3.96682
3.94513
3.92485
3.90634
3.88846
3.87153
3.85578
3.83814
3.82208
3.8109
3.80222
3.7969
3.79338
3.79621
3.80692
3.83223
3.88506
3.9956
4.20101
4.59381
5.21235
5.74816
5.90062
5.8976
6.35796
6.12727
5.86362
5.57471
5.28368
5.00915
4.79477
4.59963
4.43552
4.30763
4.17054
4.01918
3.88484
3.75504
3.66413
3.65922
3.82059
4.35029
5.26706
5.88125
5.90982
5.72423
5.51661
5.38968
5.32571
5.28549
5.25265
5.22083
5.18546
5.14098
5.08014
5.00057
4.89883
4.77889
4.64218
4.49402
4.33605
4.17637
4.02189
3.88011
3.73453
3.59784
3.46755
3.35016
3.23434
3.12424
3.01912
2.92396
2.82658
2.72851
2.63821
2.55588
2.47977
2.41545
2.34809
2.27908
2.21442
2.15852
2.10547
2.06732
2.05046
2.05938
2.10626
2.26115
2.52972
2.94404
3.55103
4.052
4.17856
4.09212
3.98963
3.93696
3.93506
3.94248
3.95605
3.95692
3.95076
3.93002
3.907
3.88342
3.86268
3.84371
3.82812
3.81584
3.80141
3.78817
3.77644
3.76703
3.7624
3.76394
3.77261
3.79597
3.85071
3.97503
4.2165
4.7003
5.43319
5.98852
6.03044
6.0274
6.4106
6.17899
5.91954
5.65109
5.38096
5.10097
4.89016
4.69966
4.52325
4.37365
4.24407
4.09851
3.95269
3.85935
3.85736
3.99876
4.52591
5.46682
6.3014
6.29422
6.15149
5.88868
5.67609
5.53011
5.42516
5.35173
5.2995
5.25618
5.2131
5.16708
5.11128
5.04263
4.95715
4.85349
4.7343
4.59894
4.45726
4.30656
4.16016
4.00825
3.86376
3.72445
3.5913
3.47019
3.34374
3.22521
3.11563
3.01454
2.91157
2.81228
2.71843
2.63201
2.55093
2.47589
2.409
2.34761
2.28475
2.22574
2.15869
2.09099
2.02909
2.00656
1.98975
2.02887
2.11831
2.31818
2.66476
3.15665
3.78053
4.07582
4.06863
3.97828
3.90545
3.889
3.89205
3.90416
3.91038
3.90434
3.88819
3.86701
3.84068
3.81827
3.79943
3.78611
3.77455
3.7628
3.75242
3.73697
3.72651
3.72657
3.73574
3.75999
3.82044
3.9638
4.26405
4.87527
5.71105
6.19948
6.18654
6.16184
6.16678
6.27299
6.03356
5.78139
5.50977
5.2267
4.9773
4.78786
4.59904
4.4452
4.30699
4.16806
4.05856
4.03313
4.17062
4.65401
5.64077
6.63315
6.76191
6.58927
6.29696
6.04305
5.85578
5.69193
5.54633
5.43507
5.35902
5.3003
5.24753
5.19496
5.13857
5.07446
4.99896
4.90876
4.8043
4.68569
4.55505
4.41613
4.2712
4.12474
3.98171
3.83976
3.70363
3.57144
3.44776
3.32913
3.2163
3.10929
3.00642
2.90727
2.80877
2.71529
2.63009
2.55614
2.48584
2.42144
2.35668
2.29494
2.22322
2.14523
2.07021
2.01251
1.98321
1.95143
1.97075
2.04297
2.18622
2.42357
2.81952
3.39639
3.89348
4.03946
3.9808
3.89652
3.85262
3.85175
3.85572
3.86272
3.86193
3.85024
3.82709
3.79796
3.77399
3.75543
3.74313
3.73373
3.72267
3.70379
3.68893
3.68514
3.69435
3.72192
3.79833
3.97347
4.37255
5.15385
6.04294
6.35142
6.32882
6.27382
5.30228
6.23655
6.09156
5.85727
5.59757
5.36352
5.09014
4.86115
4.64818
4.46899
4.34441
4.24424
4.21201
4.33917
4.79251
5.7678
6.95876
7.40748
7.05948
6.64274
6.37229
6.20979
6.04301
5.86131
5.68961
5.54425
5.43552
5.35634
5.29091
5.22962
5.16787
5.10259
5.03111
4.94926
4.85652
4.75016
4.63327
4.50584
4.37165
4.2336
4.09144
3.95057
3.8112
3.67761
3.54824
3.42448
3.3074
3.197
3.09078
2.98657
2.88388
2.78453
2.69128
2.6055
2.53075
2.46335
2.40321
2.33888
2.26594
2.19043
2.11999
2.05387
1.99895
1.95674
1.94512
1.94853
1.97916
2.05759
2.23559
2.56045
3.03581
3.64071
3.93196
3.94104
3.8766
3.82583
3.8123
3.81263
3.81995
3.81843
3.80782
3.78428
3.75408
3.7289
3.70981
3.69831
3.68678
3.66666
3.6498
3.6435
3.65259
3.68652
3.78665
4.01497
4.55819
5.49566
6.35662
6.49002
6.43245
6.35287
4.19052
5.74927
6.12025
5.94311
5.65422
5.41526
5.17296
4.92645
4.71075
4.49219
4.39463
4.38047
4.50229
4.94853
5.91942
7.28018
7.92934
7.55405
7.0935
6.78676
6.60093
6.41462
6.22204
6.02671
5.84388
5.68127
5.54499
5.4369
5.3498
5.27424
5.20398
5.13286
5.05919
4.98016
4.89351
4.79735
4.69094
4.57473
4.44979
4.31816
4.18246
4.0439
3.90514
3.76851
3.63562
3.5085
3.38867
3.27595
3.16752
3.06271
2.95996
2.8605
2.76561
2.67885
2.6023
2.53022
2.46265
2.39319
2.32671
2.25818
2.18288
2.11069
2.05097
1.99969
1.96219
1.93216
1.90746
1.92687
1.98761
2.09739
2.33601
2.71831
3.28063
3.7517
3.90312
3.86686
3.81098
3.78059
3.77321
3.76737
3.75872
3.74603
3.72486
3.7007
3.67943
3.66068
3.64541
3.62464
3.60695
3.60159
3.61157
3.65903
3.79467
4.11935
4.83953
5.92486
6.62889
6.62846
6.50415
6.39221
2.73556
4.49015
5.67151
5.81607
5.63613
5.41493
5.18585
4.96448
4.7428
4.5951
4.53867
4.66859
5.11248
6.09517
7.58332
8.37524
8.02614
7.58549
7.25142
7.02258
6.80157
6.59175
6.38674
6.19023
6.00317
5.82917
5.67168
5.5378
5.42629
5.3319
5.24879
5.16922
5.0899
5.00841
4.92305
4.83167
4.73294
4.62597
4.51091
4.38916
4.26152
4.13004
3.99548
3.86115
3.72869
3.60015
3.47749
3.3609
3.24949
3.14069
3.03469
2.9314
2.83379
2.74656
2.662
2.58351
2.50398
2.43428
2.37332
2.30493
2.22728
2.15518
2.09505
2.04089
1.99339
1.95415
1.91861
1.90041
1.88838
1.90601
1.96421
2.12029
2.43941
2.95642
3.57847
3.87078
3.86697
3.80227
3.74658
3.71865
3.70686
3.6987
3.68843
3.67508
3.65319
3.62913
3.60678
3.58212
3.56402
3.56036
3.57637
3.65
3.84709
4.32951
5.28809
6.3701
6.74898
6.70602
6.54334
6.41185
1.70374
3.28205
5.02005
5.80582
5.73342
5.51146
5.28577
5.03114
4.83882
4.77459
4.85766
5.3061
6.33979
7.94697
8.83311
8.52464
8.07716
7.71667
7.47155
7.25302
7.03388
6.81183
6.58563
6.36966
6.17041
5.98604
5.81253
5.65472
5.51781
5.4002
5.29822
5.20646
5.11943
5.0331
4.94513
4.854
4.75836
4.65739
4.55024
4.43687
4.31748
4.19292
4.06428
3.93315
3.80199
3.67279
3.54797
3.428
3.31333
3.20179
3.093
2.98718
2.88816
2.79873
2.71748
2.64134
2.56652
2.49536
2.42323
2.34666
2.27141
2.20329
2.14683
2.0964
2.04919
2.00431
1.9611
1.91987
1.88034
1.85812
1.83158
1.88011
2.01738
2.29851
2.74858
3.36155
3.71928
3.79936
3.75833
3.69837
3.66243
3.64962
3.63824
3.6291
3.61595
3.59484
3.56674
3.53877
3.51693
3.51361
3.54718
3.66898
3.98246
4.6889
5.845
6.70621
6.82219
6.73923
6.55026
6.41283
1.30334
2.44852
4.06809
5.42649
5.85794
5.65603
5.41043
5.13694
4.99943
5.07755
5.51658
6.58887
8.33307
9.32138
9.00382
8.52525
8.13377
7.88741
7.68958
7.48196
7.25415
7.0063
6.76618
6.54713
6.34043
6.14431
5.95908
5.78533
5.62753
5.48764
5.36425
5.25475
5.1555
5.061
4.96775
4.87331
4.77719
4.67868
4.57697
4.47078
4.35916
4.24248
4.12091
3.99642
3.87014
3.74567
3.62361
3.50484
3.38915
3.27611
3.1656
3.05847
2.9578
2.86655
2.78473
2.70568
2.63149
2.55456
2.47347
2.39405
2.31729
2.24847
2.1908
2.14072
2.09223
2.04393
1.99695
1.95217
1.9097
1.86044
1.82464
1.80247
1.8401
1.92165
2.12953
2.47668
3.01632
3.5215
3.7508
3.73962
3.67257
3.61424
3.58224
3.56386
3.55571
3.54168
3.51852
3.49264
3.47736
3.48111
3.55051
3.75998
4.2614
5.22777
6.37334
6.85808
6.83037
6.71322
6.52215
6.39466
1.04472
1.4888
2.65015
4.2471
5.41273
5.53238
5.36765
5.21128
5.28859
5.77092
6.91093
8.79294
9.8596
9.50379
8.97465
8.54841
8.30433
8.13072
7.94131
7.71715
7.46847
7.208
6.96465
6.73499
6.5137
6.3021
6.10336
5.9173
5.74349
5.58424
5.43923
5.30841
5.19151
5.08468
4.98296
4.88304
4.78379
4.68492
4.58541
4.48371
4.37834
4.26827
4.15386
4.03608
3.91635
3.79617
3.67658
3.55811
3.4407
3.32486
3.21206
3.10346
3.00109
2.90823
2.8251
2.74662
2.67035
2.5947
2.51995
2.44294
2.36579
2.2958
2.23633
2.18446
2.13635
2.09073
2.04471
1.99919
1.95263
1.90692
1.85496
1.80495
1.78529
1.78747
1.8324
1.98208
2.26804
2.79718
3.32946
3.62734
3.66088
3.60968
3.54938
3.51213
3.4907
3.47038
3.45096
3.43876
3.43942
3.47298
3.61355
3.99196
4.75938
5.89272
6.70384
6.84583
6.795
6.68151
6.50729
6.3911
1.02028
0.993835
1.65155
3.08711
4.72695
5.47216
5.48415
5.45398
6.00879
7.31559
9.4083
10.532
10.0385
9.39697
8.91593
8.66378
8.52021
8.35229
8.14591
7.90778
7.65082
7.39758
7.15431
6.91737
6.68715
6.46597
6.25647
6.05762
5.86912
5.69215
5.52831
5.37787
5.24157
5.11787
5.00349
4.89511
4.79138
4.69082
4.59131
4.49132
4.38891
4.28332
4.1748
4.06414
3.95207
3.83924
3.72627
3.61328
3.49999
3.38714
3.27616
3.16874
3.06683
2.97329
2.88835
2.80817
2.73095
2.65508
2.578
2.49851
2.42015
2.35023
2.29088
2.23757
2.18897
2.14047
2.09277
2.04432
1.99629
1.9476
1.89652
1.84889
1.79751
1.77076
1.74085
1.77434
1.88104
2.12114
2.57485
3.05853
3.42758
3.5431
3.52369
3.47992
3.43269
3.39951
3.38158
3.38247