/*--------------------------------*- C++ -*----------------------------------*\
| =========                 |                                                 |
| \\      /  F ield         | OpenFOAM: The Open Source CFD Toolbox           |
|  \\    /   O peration     | Version:  v2106                                 |
|   \\  /    A nd           | Website:  www.openfoam.com                      |
|    \\/     M anipulation  |                                                 |
\*---------------------------------------------------------------------------*/
FoamFile
{
    version     2.0;
    format      ascii;
    arch        "LSB;label=32;scalar=64";
    class       surfaceScalarField;
    location    "4";
    object      phi;
}
// * * * * * * * * * * * * * * * * * * * * * * * * * * * * * * * * * * * * * //

dimensions      [1 0 -1 0 0 0 0];

oriented        oriented;

internalField   nonuniform List<scalar> 
10325
(
0.0084507
-1.50975e-17
0.0084507
4.93556e-16
0.0084507
7.9697e-16
0.0084507
3.19477e-14
0.0084507
1.2621e-13
0.0084507
-1.08789e-11
0.0084507
-2.00341e-11
0.0084507
1.19055e-11
0.00845063
3.38192e-10
0.00845037
3.53871e-09
0.00844527
2.97185e-08
0.00841473
3.06083e-07
0.00808985
2.57797e-06
0.00710792
2.29885e-05
0.00625963
8.43409e-05
0.00725262
0.000877084
0.00695793
0.000504561
0.00636328
0.000595712
0.00564357
0.000657209
0.00496289
0.000722484
0.00414389
0.000824184
0.00324272
0.000905549
0.00225866
0.000991474
0.00118619
0.00107825
0.00118709
0.0084507
2.05998e-18
0.0084507
4.12891e-16
0.0084507
-2.65115e-16
0.0084507
3.2022e-14
0.0084507
4.83779e-14
0.0084507
-4.3391e-11
0.0084507
-2.40473e-11
0.0084507
2.18015e-11
0.00845063
7.94676e-10
0.00845038
5.784e-09
0.00844542
6.10449e-08
0.00841573
5.46804e-07
0.0080984
5.08563e-06
0.00712011
4.84092e-05
0.00625679
0.000179941
0.00715981
0.00179967
0.0069096
0.00100581
0.00631328
0.00119383
0.00559104
0.00131798
0.00491285
0.00144462
0.00410401
0.0016396
0.00320017
0.00181424
0.00219594
0.00200514
0.0011216
0.00215968
0.0023108
0.0084507
-6.60008e-17
0.0084507
1.54024e-15
0.0084507
8.73677e-15
0.0084507
1.15889e-13
0.0084507
9.36391e-13
0.0084507
-3.33571e-12
0.0084507
9.77745e-11
0.0084507
-1.70726e-10
0.00845063
2.58201e-09
0.00845043
-1.49541e-09
0.00844541
1.52297e-07
0.00841856
5.29842e-07
0.00813444
-2.26867e-05
0.00718086
7.86048e-05
0.00629859
0.000272933
0.00709809
0.00271285
0.00691781
0.00155357
0.00630853
0.00180848
0.00560054
0.00196911
0.00492333
0.00216551
0.00410356
0.00246938
0.00319174
0.00273677
0.00219991
0.00301211
0.00112645
0.00324705
0.00344686
0.0084507
-1.36796e-15
0.0084507
3.65045e-15
0.0084507
5.45432e-15
0.0084507
1.85174e-13
0.0084507
2.22412e-12
0.0084507
6.51272e-13
0.0084507
1.02349e-10
0.0084507
-2.65561e-10
0.00845064
2.84518e-09
0.00845038
-3.75424e-09
0.00844634
1.4871e-07
0.00841859
7.96556e-07
0.00814867
-2.48171e-05
0.0072088
0.000103496
0.00631362
0.000357649
0.00690936
0.00363399
0.00690998
0.00209356
0.0063223
0.00240209
0.00558999
0.00264404
0.00488979
0.00291768
0.00408295
0.00328896
0.00320432
0.00362653
0.00221779
0.00401482
0.00114392
0.00433571
0.00460049
0.0084507
-1.23152e-15
0.0084507
1.88109e-15
0.0084507
4.07958e-16
0.0084507
6.35456e-14
0.0084507
1.38596e-12
0.0084507
-1.70156e-12
0.0084507
5.40637e-11
0.0084507
-1.40195e-11
0.00845066
2.25475e-09
0.00845031
6.25293e-09
0.00844723
1.19065e-07
0.00842024
1.16636e-06
0.00817579
4.49334e-06
0.0072584
0.000116536
0.00633162
0.00044661
0.00666825
0.00455003
0.00684245
0.00271077
0.00625453
0.00299803
0.00558258
0.00326225
0.00493759
0.00361139
0.00418225
0.00405811
0.00331532
0.00450917
0.00232144
0.00502863
0.00120641
0.00547043
0.00582063
0.0084507
1.40187e-16
0.0084507
2.39717e-16
0.0084507
2.90292e-15
0.0084507
1.2273e-14
0.0084507
2.60855e-13
0.0084507
1.39704e-12
0.0084507
3.29495e-11
0.0084507
2.10663e-11
0.00845067
2.49452e-09
0.00845038
-1.56875e-09
0.00844778
1.69917e-07
0.00842564
6.71994e-07
0.00823643
1.0664e-05
0.00738533
0.000123044
0.00643652
0.00049898
0.00646817
0.00537651
0.00670517
0.00362146
0.0061024
0.0036
0.00549063
0.00382879
0.00488881
0.00425039
0.00416406
0.00479581
0.00336268
0.00532523
0.00237958
0.00603605
0.00123288
0.00664087
0.0070831
0.0084507
1.1498e-16
0.0084507
-4.89246e-17
0.0084507
3.03368e-15
0.0084507
-2.27543e-14
0.0084507
4.44137e-13
0.0084507
5.68215e-13
0.0084507
3.09337e-11
0.0084507
2.38263e-11
0.00845068
2.54948e-09
0.00845046
-6.25788e-09
0.00844858
2.01365e-07
0.00843231
-8.19914e-07
0.00829785
1.17411e-05
0.007551
0.000104699
0.00668053
0.000371813
0.00660097
0.00567182
0.00707638
0.00495678
0.00632506
0.00435439
0.0056118
0.00450607
0.00496691
0.00493509
0.00433906
0.00543242
0.00354474
0.00613781
0.00255073
0.00705318
0.0014645
0.0077681
0.00857112
0.0084507
-1.00695e-16
0.0084507
2.28116e-16
0.0084507
-3.78907e-15
0.0084507
-1.67265e-14
0.0084507
2.65194e-13
0.0084507
5.1731e-14
0.0084507
3.23127e-11
0.0084507
9.18329e-11
0.00845068
2.26472e-09
0.00845052
5.39775e-09
0.00844916
1.73621e-07
0.00843588
-4.03254e-07
0.00833792
9.54212e-06
0.00768369
8.26598e-05
0.00680131
0.000214112
0.00687373
0.00501335
0.00759576
0.00668638
0.00671095
0.00521918
0.0058906
0.00529107
0.00513209
0.00571936
0.00452766
0.00605467
0.00367401
0.0070152
0.00276621
0.00799146
0.00158749
0.00896314
0.0102618
0.0084507
-2.93548e-17
0.0084507
-1.18097e-16
0.0084507
-1.95482e-16
0.0084507
4.76092e-14
0.0084507
-4.88657e-13
0.0084507
7.32904e-14
0.0084507
7.22206e-12
0.0084507
7.15187e-12
0.0084507
1.49778e-09
0.00845057
6.62726e-09
0.00844982
9.96158e-08
0.00843911
6.65784e-07
0.0083699
6.90107e-06
0.00781364
6.17658e-05
0.00682775
0.000175764
0.00715425
0.00378798
0.00847396
0.00797588
0.00743389
0.00625969
0.00645644
0.00622073
0.00578595
0.00644642
0.00501883
0.00685354
0.00420523
0.00783839
0.00337918
0.00889522
0.00229829
0.0100986
0.0127021
0.0084507
9.94755e-17
0.0084507
-1.09139e-15
0.0084507
4.90222e-16
0.0084507
4.77014e-14
0.0084507
-6.8125e-14
0.0084507
1.90186e-12
0.0084507
-2.84137e-11
0.0084507
9.37793e-12
0.0084507
8.34413e-10
0.00845058
6.12146e-09
0.00845013
6.63816e-08
0.00844191
5.44793e-07
0.00839194
5.30964e-06
0.00792177
4.90351e-05
0.0068657
0.00023771
0.00707124
0.00263972
0.00898223
0.00866694
0.00820012
0.00704254
0.00731954
0.00706363
0.00654139
0.00730911
0.0056177
0.00777984
0.00486382
0.00863254
0.00397545
0.00982734
0.00251967
0.0115844
0.0157205
0.0084507
2.6563e-17
0.0084507
1.31682e-15
0.0084507
7.7151e-15
0.0084507
8.86736e-15
0.0084507
3.73298e-13
0.0084507
1.41627e-12
0.0084507
3.02986e-11
0.0084507
1.89777e-10
0.0084507
-4.59498e-11
0.00845059
1.00885e-08
0.0084504
3.15807e-08
0.00844315
6.81661e-07
0.00841086
3.8863e-06
0.0080991
-5.77342e-05
0.00712367
0.000294431
0.00690901
0.00191042
0.00916451
0.00879911
0.00880118
0.00745588
0.00812963
0.00774411
0.00733701
0.00814343
0.00648781
0.00867757
0.00582258
0.00934654
0.00533907
0.0104618
0.00523594
0.0119676
0.0132842
0.00824919
0.0084507
1.35823e-16
0.0084507
1.66723e-16
0.0084507
6.75526e-15
0.0084507
1.92664e-14
0.0084507
3.65442e-13
0.0084507
1.86704e-12
0.0084507
8.07453e-12
0.0084507
1.33478e-10
0.0084507
-2.96148e-10
0.00845064
9.04925e-09
0.00845041
1.63689e-08
0.00844641
5.81797e-07
0.00842099
2.81449e-06
0.00815797
-6.59934e-05
0.00725987
0.000279293
0.00680484
0.00139926
0.00880871
0.0083524
0.0091175
0.00781727
0.00884348
0.00809491
0.0081468
0.00885949
0.00757321
0.00931136
0.00705609
0.00990411
0.00701577
0.0105295
0.00740312
0.0114423
0.0119811
0.0095979
0.0084507
1.15468e-16
0.0084507
6.92534e-17
0.0084507
4.60482e-15
0.0084507
-4.56178e-17
0.0084507
3.09261e-13
0.0084507
-4.91983e-13
0.0084507
6.68787e-12
0.0084507
4.80033e-11
0.0084507
6.3044e-10
0.00845071
1.61445e-09
0.00845031
1.41063e-08
0.00844964
3.06866e-07
0.00843071
-2.99974e-06
0.00823018
2.06591e-05
0.00742537
0.000196419
0.00682532
0.000992777
0.00794547
0.00789598
0.00887165
0.00835657
0.00887099
0.00820736
0.00864479
0.00900622
0.00833395
0.00956891
0.00818421
0.0100608
0.00831598
0.010519
0.0087232
0.0109577
0.0110531
0.0103271
0.0084507
1.48265e-17
0.0084507
1.60272e-16
0.0084507
2.03722e-15
0.0084507
-1.03289e-15
0.0084507
1.71851e-13
0.0084507
-1.26012e-12
0.0084507
6.66175e-12
0.0084507
1.79787e-12
0.0084507
4.62648e-10
0.00845069
1.6705e-09
0.00845053
5.6067e-09
0.00844934
6.47424e-08
0.00843753
-3.70531e-06
0.00835389
1.24692e-05
0.00776965
0.000122398
0.0070349
0.000614444
0.00782087
0.00629957
0.00906985
0.00966967
0.00880943
0.00841379
0.00891538
0.00889981
0.00892817
0.00960758
0.0090183
0.0100315
0.00922575
0.0104341
0.00961041
0.0106283
0.0106103
0.0105368
0.0084507
-4.74338e-18
0.0084507
-2.20364e-17
0.0084507
-2.44217e-16
0.0084507
-3.32877e-15
0.0084507
4.65365e-14
0.0084507
-1.89934e-14
0.0084507
2.05556e-12
0.0084507
-3.34088e-12
0.0084507
3.7335e-11
0.00845069
2.05495e-09
0.00845063
6.87417e-09
0.00844996
-6.65133e-08
0.00843972
8.49971e-07
0.00838676
7.88942e-06
0.00792627
8.16908e-05
0.00704498
0.000442776
0.00786851
0.00438209
0.00988519
0.01054
0.00936277
0.00900824
0.00922523
0.00902989
0.00930433
0.0095365
0.00950122
0.009925
0.00980535
0.0102404
0.0101612
0.0103517
0.0101279
0.0109768
0.0084507
-1.08149e-17
0.0084507
6.61634e-17
0.0084507
7.86291e-16
0.0084507
6.80277e-15
0.0084507
2.62252e-15
0.0084507
2.3719e-13
0.0084507
1.47603e-12
0.0084507
1.76748e-11
0.0084507
2.30412e-10
0.0084507
3.37518e-11
0.00845061
8.0333e-09
0.00845037
4.42091e-08
0.00844496
4.45822e-07
0.00841694
4.39174e-06
0.00810724
4.24762e-05
0.00720242
0.000390772
0.00757029
0.0028264
0.0102629
0.0101904
0.0100888
0.00961634
0.00978221
0.00948805
0.00969272
0.00964757
0.00980728
0.00984266
0.0101048
0.00998373
0.0105078
0.0100222
0.00967072
0.0111993
0.0084507
-9.16151e-18
0.0084507
3.16858e-17
0.0084507
1.86889e-16
0.0084507
5.08041e-15
0.0084507
-3.92937e-15
0.0084507
1.00104e-13
0.0084507
1.10563e-12
0.0084507
6.46756e-12
0.0084507
1.96161e-10
0.0084507
1.13846e-10
0.00845067
6.9721e-09
0.00845037
3.39817e-08
0.00844771
3.31119e-07
0.00842578
3.30448e-06
0.0082504
2.28373e-05
0.00750011
0.000287203
0.00740516
0.00172621
0.00962629
0.00886063
0.0105344
0.0101929
0.0103224
0.00989193
0.0101413
0.0097832
0.0101231
0.00981663
0.0103389
0.00980015
0.010715
0.00974486
0.0093816
0.0112147
0.0084507
6.23416e-19
0.0084507
-9.83913e-18
0.0084507
7.00124e-17
0.0084507
1.37133e-15
0.0084507
9.77069e-15
0.0084507
9.24248e-14
0.0084507
-1.33178e-13
0.0084507
3.61109e-12
0.0084507
4.05175e-11
0.0084507
3.08555e-10
0.0084507
2.65527e-09
0.00845053
2.48634e-08
0.00844984
2.0818e-07
0.00843881
1.91319e-06
0.00836646
1.68642e-05
0.00785378
0.000152476
0.00729182
0.00106796
0.00867016
0.00656172
0.0107187
0.0108227
0.0105224
0.010173
0.0104272
0.00981275
0.0104491
0.00977788
0.0106103
0.00970193
0.0108978
0.00955587
0.00920022
0.0112468
0.0084507
-1.57209e-18
0.0084507
2.50451e-17
0.0084507
2.04914e-16
0.0084507
2.55655e-16
0.0084507
1.32513e-14
0.0084507
5.49145e-14
0.0084507
4.85732e-13
0.0084507
7.7472e-12
0.0084507
7.00558e-13
0.0084507
2.18618e-10
0.0084507
6.09552e-10
0.0084506
1.30129e-08
0.00845027
7.49355e-08
0.00844367
8.89793e-07
0.00840752
7.45125e-06
0.00804994
7.23311e-05
0.00735494
0.000675847
0.00847469
0.00421194
0.0112493
0.0107675
0.0111956
0.0105201
0.0110515
0.0101818
0.0109166
0.00992187
0.0109413
0.00972294
0.0110962
0.0094827
0.00907823
0.0113563
0.0084507
-2.41235e-18
0.0084507
1.42844e-17
0.0084507
4.65665e-17
0.0084507
-3.05745e-17
0.0084507
4.71213e-15
0.0084507
1.48006e-14
0.0084507
3.10017e-13
0.0084507
5.26371e-12
0.0084507
1.52774e-12
0.0084507
1.24969e-10
0.0084507
5.34653e-10
0.00845066
7.0559e-09
0.00845032
5.22652e-08
0.00844738
4.63033e-07
0.00842327
4.48026e-06
0.0082405
3.39311e-05
0.00756463
0.000400882
0.0080058
0.00245895
0.0109398
0.00912433
0.0117848
0.0111042
0.0116252
0.0106541
0.0113923
0.0101677
0.0112807
0.0098346
0.0113055
0.00950054
0.00903118
0.0114496
0.0084507
6.23416e-19
0.0084507
1.43657e-18
0.0084507
5.94414e-17
0.0084507
6.82072e-16
0.0084507
2.52456e-16
0.0084507
2.35464e-14
0.0084507
5.66697e-14
0.0084507
1.29444e-12
0.0084507
9.5119e-12
0.0084507
1.57805e-11
0.0084507
5.11221e-10
0.0084507
2.26715e-09
0.00845051
3.18545e-08
0.00844996
2.21601e-07
0.00843853
2.07278e-06
0.00837461
1.93172e-05
0.00793475
0.000141995
0.00762115
0.00146921
0.00942029
0.00662565
0.0118628
0.0112956
0.0118418
0.0107143
0.0117435
0.0103122
0.0116431
0.00994561
0.0116203
0.00956209
0.00907419
0.011652
0.0084507
9.21572e-19
0.0084507
-4.60786e-19
0.0084507
2.96258e-17
0.0084507
4.3566e-16
0.0084507
-1.13299e-16
0.0084507
1.28684e-14
0.0084507
1.59611e-14
0.0084507
5.44421e-13
0.0084507
5.53179e-12
0.0084507
-5.45399e-13
0.0084507
3.0334e-10
0.00845069
8.99495e-10
0.00845062
1.64812e-08
0.00845001
1.00046e-07
0.00844476
8.95918e-07
0.00840418
9.15735e-06
0.00812331
4.65407e-05
0.0076124
0.00078822
0.00893707
0.00402428
0.0121528
0.0104234
0.0123956
0.0110976
0.012322
0.0106264
0.0121472
0.0101862
0.012019
0.00972254
0.0092099
0.0119421
0.0084507
1.6263e-19
0.0084507
2.38524e-18
0.0084507
7.39968e-18
0.0084507
1.20834e-16
0.0084507
9.6044e-16
0.0084507
1.61606e-15
0.0084507
4.35861e-14
0.0084507
1.11735e-13
0.0084507
2.77878e-12
0.0084507
1.7506e-11
0.0084507
6.04153e-11
0.0084507
9.48379e-10
0.0084507
4.80637e-09
0.00845035
6.29425e-08
0.00844943
4.73097e-07
0.00843037
3.77665e-06
0.00830591
3.9195e-05
0.00782896
0.000249263
0.00833726
0.00216044
0.0112361
0.00816089
0.0127623
0.0115866
0.0126164
0.0110087
0.0124988
0.0103846
0.0123627
0.00990896
0.00937187
0.0122495
0.0084507
-5.14996e-19
0.0084507
-2.1684e-19
0.0084507
1.35525e-19
0.0084507
4.93312e-17
0.0084507
5.43348e-16
0.0084507
5.87638e-16
0.0084507
1.79313e-14
0.0084507
-1.40367e-14
0.0084507
1.32263e-12
0.0084507
8.6171e-12
0.0084507
2.23496e-11
0.0084507
3.35943e-10
0.00845069
9.32978e-10
0.00845059
2.66185e-08
0.00844978
1.80241e-07
0.00844295
1.08315e-06
0.00839598
1.59585e-05
0.0081015
3.68011e-05
0.00769867
0.00124693
0.00947698
0.00521224
0.012774
0.010958
0.0129053
0.0112249
0.0128575
0.0106947
0.0127053
0.0101066
0.00954936
0.0125778
0.0084507
2.71051e-19
0.0084507
-6.50521e-19
0.0084507
9.24282e-18
0.0084507
-8.94467e-19
0.0084507
1.78243e-16
0.0084507
8.10035e-16
0.0084507
9.48081e-15
0.0084507
1.30103e-13
0.0084507
1.54343e-13
0.0084507
5.20546e-12
0.0084507
1.76073e-11
0.0084507
2.86208e-10
0.0084507
2.0695e-09
0.00845072
7.67023e-09
0.00845014
9.98887e-08
0.00844941
7.08427e-07
0.00842331
4.75327e-06
0.00825013
5.51659e-05
0.00783446
0.000411472
0.00888321
0.00291293
0.0122291
0.00878502
0.0134575
0.0115804
0.013208
0.0111369
0.0131026
0.0102723
0.00976641
0.0129299
0.0084507
2.71051e-20
0.0084507
-9.75782e-19
0.0084507
7.02021e-18
0.0084507
-5.14996e-18
0.0084507
5.44812e-17
0.0084507
4.16469e-16
0.0084507
2.3051e-15
0.0084507
8.95051e-14
0.0084507
2.07782e-14
0.0084507
2.51239e-12
0.0084507
4.51598e-12
0.0084507
1.0835e-10
0.0084507
1.00356e-09
0.00845069
1.75639e-09
0.00845057
3.65807e-08
0.0084497
2.46996e-07
0.00844221
4.71129e-07
0.00839749
1.98885e-05
0.00814048
6.51738e-05
0.00800763
0.00158857
0.0100655
0.00582074
0.0133907
0.0109639
0.0134778
0.0113163
0.0134052
0.0106261
0.00997655
0.0132283
0.0084507
-2.71051e-20
0.0084507
-1.0842e-19
0.0084507
-3.61112e-35
0.0084507
6.50521e-19
0.0084507
3.21466e-17
0.0084507
1.10643e-16
0.0084507
8.90943e-16
0.0084507
9.58302e-15
0.0084507
1.00088e-13
0.0084507
3.78739e-13
0.0084507
6.16622e-12
0.0084507
2.34758e-11
0.0084507
3.80134e-10
0.0084507
2.53698e-09
0.00845073
9.88534e-09
0.00845002
1.08819e-07
0.008449
8.9166e-07
0.00842116
2.85686e-06
0.00824465
6.65276e-05
0.00792472
0.000542185
0.00931951
0.00320769
0.0128768
0.00876502
0.0141177
0.0115677
0.0138137
0.0111505
0.0102027
0.0136715
0.0084507
4.33681e-19
0.0084507
6.77626e-19
0.0084507
4.87891e-19
0.0084507
2.1684e-19
0.0084507
1.40404e-17
0.0084507
2.72948e-17
0.0084507
-1.31893e-16
0.0084507
4.22226e-15
0.0084507
3.88948e-14
0.0084507
1.03219e-13
0.0084507
2.30846e-12
0.0084507
1.41147e-12
0.0084507
1.49368e-10
0.0084507
1.16974e-09
0.00845069
2.89752e-09
0.00845057
1.74679e-08
0.00844972
2.98133e-07
0.00844205
-2.30152e-06
0.00840248
2.31252e-05
0.00818444
9.83864e-05
0.00822253
0.00168721
0.0104777
0.00585499
0.0139158
0.0107578
0.0141357
0.0112458
0.0106227
0.0139947
0.0084507
-4.87891e-19
0.0084507
-9.21572e-19
0.0084507
-1.73472e-18
0.0084507
-2.62919e-18
0.0084507
-1.21973e-18
0.0084507
4.49131e-17
0.0084507
3.46321e-16
0.0084507
6.6757e-16
0.0084507
2.0094e-14
0.0084507
8.02103e-14
0.0084507
1.20123e-12
0.0084507
8.58415e-12
0.0084507
2.79842e-11
0.0084507
3.29178e-10
0.0084507
2.21097e-09
0.00845055
1.44145e-08
0.00845084
1.61618e-07
0.00844781
7.31732e-07
0.00842229
6.79011e-06
0.00828898
6.43456e-05
0.00793486
0.000693863
0.00930461
0.00309024
0.0130914
0.0081446
0.0146195
0.0112692
0.0110772
0.0143667
0.0084507
-2.1684e-19
0.0084507
5.42101e-20
0.0084507
-1.11131e-18
0.0084507
-9.21572e-19
0.0084507
-2.62919e-18
0.0084507
1.76725e-17
0.0084507
1.63308e-16
0.0084507
2.71918e-16
0.0084507
7.54003e-15
0.0084507
2.99765e-14
0.0084507
4.3631e-13
0.0084507
4.4048e-12
0.0084507
9.11708e-12
0.0084507
7.08119e-11
0.0084507
8.8739e-10
0.00845069
-8.35119e-10
0.00845054
1.26393e-07
0.00844961
-2.04305e-08
0.00844148
1.65797e-06
0.00839912
1.3873e-05
0.00820936
0.000207954
0.00905789
0.000400781
0.0112755
0.00561526
0.0146942
0.0103196
0.0112004
0.0151062
0.0084507
1.6263e-19
0.0084507
8.13152e-20
0.0084507
-2.98156e-19
0.0084507
-4.33681e-19
0.0084507
-2.1684e-19
0.0084507
-5.42101e-20
0.0084507
3.46945e-17
0.0084507
1.67347e-16
0.0084507
1.95978e-15
0.0084507
1.17785e-14
0.0084507
1.06052e-13
0.0084507
7.48687e-13
0.0084507
5.42109e-12
0.0084507
3.62916e-11
0.0084507
3.14052e-10
0.0084507
2.32615e-09
0.0084507
4.5799e-08
0.00845044
-9.24886e-08
0.00844826
1.14357e-06
0.0084353
7.72234e-07
0.00837769
8.28813e-05
0.00820958
-0.000451369
0.00936196
0.00303612
0.0126199
0.0081126
0.0112693
0.014728
0.0084507
-2.43945e-19
0.0084507
-6.77626e-19
0.0084507
-8.13152e-20
0.0084507
1.89735e-19
0.0084507
1.6263e-19
0.0084507
-1.92446e-18
0.0084507
1.11402e-17
0.0084507
4.68375e-17
0.0084507
7.38857e-16
0.0084507
2.20234e-15
0.0084507
4.39493e-14
0.0084507
1.7709e-13
0.0084507
2.4305e-12
0.0084507
8.7131e-12
0.0084507
1.43642e-10
0.0084507
7.48509e-10
0.00845072
-1.85821e-08
0.00845047
4.77552e-08
0.0084503
2.90394e-07
0.00843289
3.10393e-06
0.00851127
1.9764e-05
0.0079696
9.01925e-05
0.00786026
0.000897929
0.0102214
0.00464033
0.00931392
0.0141644
0.0084507
-4.87891e-19
0.0084507
-5.69206e-19
0.0084507
-6.77626e-19
0.0084507
-7.31836e-19
0.0084507
-1.24683e-18
0.0084507
-2.08709e-18
0.0084507
-7.86047e-19
0.0084507
1.14112e-17
0.0084507
2.02963e-16
0.0084507
3.98878e-16
0.0084507
1.3058e-14
0.0084507
1.97565e-14
0.0084507
6.12012e-13
0.0084507
2.33937e-12
0.0084507
2.29345e-11
0.00845071
1.23229e-10
0.00845069
6.84279e-10
0.00845069
1.24066e-08
0.00845044
1.11874e-07
0.00845068
1.04272e-06
0.00843789
8.23104e-06
0.00839487
2.10803e-05
0.00826574
3.74207e-05
0.00919689
0.00217884
0.00663704
0.0122295
0.0084507
-2.98156e-19
0.0084507
8.13152e-20
0.0084507
-4.60786e-19
0.0084507
-8.67362e-19
0.0084507
-1.35525e-18
0.0084507
-5.69206e-19
0.0084507
2.1684e-19
0.0084507
3.52366e-18
0.0084507
4.87349e-17
0.0084507
2.05917e-16
0.0084507
2.7491e-15
0.0084507
1.71179e-15
0.0084507
1.95604e-13
0.0084507
6.86044e-13
0.0084507
9.49227e-12
0.0084507
4.66518e-11
0.00845071
-2.0868e-10
0.00845069
2.64063e-09
0.00845074
2.13267e-08
0.00845047
2.23344e-07
0.00845395
1.64724e-06
0.00841747
1.16147e-05
0.00825682
8.83218e-05
0.00785064
0.000958095
0.00352175
0.00976397
0.0084507
-8.13152e-20
0.0084507
1.89735e-19
0.0084507
4.06576e-19
0.0084507
-3.25261e-19
0.0084507
-9.62965e-35
0.0084507
1.35525e-18
0.0084507
2.1684e-18
0.0084507
3.33392e-18
0.0084507
1.00831e-17
0.0084507
1.07038e-16
0.0084507
6.4651e-16
0.0084507
2.32794e-15
0.0084507
7.02633e-14
0.0084507
3.13502e-13
0.0084507
5.467e-12
0.0084507
3.56345e-11
0.0084507
9.45794e-11
0.0084507
1.53039e-09
0.00845068
3.14412e-09
0.00845052
9.0079e-08
0.0084496
2.15466e-07
0.00843997
4.42979e-06
0.00842202
-1.13972e-05
0.00833435
0.000238551
0.00066787
0.00943435
0.0084507
4.60786e-19
0.0084507
4.33681e-19
0.0084507
-2.71051e-19
0.0084507
4.60786e-19
0.0084507
1.40946e-18
0.0084507
1.35525e-18
0.0084507
2.1413e-18
0.0084507
1.89735e-18
0.0084507
7.61652e-18
0.0084507
1.19533e-17
0.0084507
3.52501e-16
0.0084507
1.71491e-15
0.0084507
7.48902e-15
0.0084507
1.3233e-13
0.0084507
4.41556e-13
0.0084507
7.67729e-12
0.0084507
3.01354e-11
0.0084507
3.99576e-10
0.0084507
2.87554e-09
0.00845068
3.24344e-08
0.0084505
-3.38426e-08
0.00844943
2.35258e-06
0.00843888
-2.52853e-05
0.00842585
8.88829e-05
-0.000323681
0.00827261
0.0084507
1.0842e-19
0.0084507
8.40257e-19
0.0084507
-1.35525e-19
0.0084507
1.02999e-18
0.0084507
1.16552e-18
0.0084507
1.02999e-18
0.0084507
1.19262e-18
0.0084507
2.71051e-19
0.0084507
2.43945e-18
0.0084507
1.65341e-18
0.0084507
1.71521e-16
0.0084507
5.16595e-16
0.0084507
4.53424e-15
0.0084507
3.17339e-14
0.0084507
2.10885e-13
0.0084507
1.86412e-12
0.0084507
1.7814e-11
0.0084507
1.19361e-10
0.0084507
1.14189e-09
0.0084507
7.89707e-09
0.00845027
7.52085e-08
0.00845261
4.25308e-07
0.00842587
1.92659e-06
0.00849639
1.74688e-05
8.87917e-05
0.00808387
0.0084507
-3.52366e-19
0.0084507
-1.6263e-19
0.0084507
-8.13152e-20
0.0084507
-2.43945e-19
0.0084507
-1.35525e-19
0.0084507
5.42101e-20
0.0084507
2.98156e-19
0.0084507
7.58942e-19
0.0084507
-3.79471e-19
0.0084507
1.2902e-17
0.0084507
7.00124e-17
0.0084507
6.86029e-17
0.0084507
-2.93602e-16
0.0084507
8.8949e-15
0.0084507
-1.69775e-14
0.0084507
7.333e-13
0.0084507
4.49579e-12
0.0084507
4.31004e-11
0.0084507
3.81564e-10
0.0084507
2.57879e-09
0.00845073
2.80803e-08
0.00845057
1.12287e-07
0.00845087
4.70142e-07
0.00844196
5.35917e-06
1.58547e-05
0.00842509
0.0084507
6.23416e-19
0.0084507
3.25261e-19
0.0084507
1.21973e-18
0.0084507
5.42101e-19
0.0084507
4.60786e-19
0.0084507
-1.35525e-19
0.0084507
-1.35525e-19
0.0084507
-1.6263e-19
0.0084507
-1.27394e-18
0.0084507
2.81893e-18
0.0084507
2.61293e-17
0.0084507
6.26127e-17
0.0084507
-1.87526e-15
0.0084507
4.95846e-15
0.0084507
-1.32102e-13
0.0084507
4.78173e-13
0.0084507
1.09498e-13
0.0084507
1.57973e-11
0.0084507
8.52207e-11
0.0084507
3.23453e-10
0.00845071
5.89565e-09
0.00845074
-4.69865e-08
0.00845067
1.68512e-07
0.00845139
1.12263e-06
9.25572e-06
0.00843774
0.0084507
1.89735e-19
0.0084507
-5.42101e-20
0.0084507
3.79471e-19
0.0084507
1.35525e-19
0.0084507
-1.89735e-19
0.0084507
-8.40257e-19
0.0084507
-1.16552e-18
0.0084507
-1.27394e-18
0.0084507
-1.13841e-18
0.0084507
-4.60786e-19
0.0084507
3.30682e-18
0.0084507
1.04897e-17
0.0084507
6.78982e-17
0.0084507
4.23001e-16
0.0084507
6.469e-15
0.0084507
6.05064e-14
0.0084507
4.27372e-13
0.0084507
3.25755e-12
0.0084507
1.6567e-11
0.0084507
9.51287e-11
0.00845071
1.09999e-09
0.00845066
4.75848e-09
0.00845046
5.96473e-08
0.00845078
3.24878e-07
3.00286e-06
0.00844185
0.0084507
-4.87891e-19
0.0084507
-6.77626e-19
0.0084507
-5.96311e-19
0.0084507
-1.6263e-19
0.0084507
-5.42101e-20
0.0084507
-5.42101e-20
0.0084507
-3.52366e-19
0.0084507
-4.06576e-19
0.0084507
-1.35525e-19
0.0084507
9.62965e-35
0.0084507
1.21973e-18
0.0084507
3.25261e-19
0.0084507
-1.2387e-17
0.0084507
-3.03848e-16
0.0084507
1.51761e-16
0.0084507
1.52605e-14
0.0084507
4.60382e-14
0.0084507
4.55661e-13
0.0084507
-1.8881e-12
0.0084507
-2.72991e-11
0.0084507
5.15419e-11
0.0084507
-8.99125e-10
0.00845072
1.13856e-08
0.0084506
8.07134e-08
1.0303e-06
0.00845123
0.0084507
3.79471e-19
0.0084507
4.33681e-19
0.0084507
5.42101e-19
0.0084507
8.94467e-19
0.0084507
8.94467e-19
0.0084507
9.75782e-19
0.0084507
6.23416e-19
0.0084507
-1.89735e-19
0.0084507
-6.50521e-19
0.0084507
-1.11131e-18
0.0084507
-6.77626e-19
0.0084507
-6.23416e-19
0.0084507
1.36338e-17
0.0084507
-4.41026e-16
0.0084507
7.86941e-16
0.0084507
2.09839e-15
0.0084507
2.35742e-14
0.0084507
1.94569e-13
0.0084507
-1.86523e-12
0.0084507
4.84326e-12
0.0084507
6.79563e-11
0.0084507
4.13007e-10
0.0084507
1.68053e-09
0.00845067
9.18468e-09
2.36977e-07
0.00845079
0.0084507
1.0842e-19
0.0084507
-1.6263e-19
0.0084507
-7.04731e-19
0.0084507
-1.00289e-18
0.0084507
-8.13152e-19
0.0084507
-3.52366e-19
0.0084507
-1.0842e-19
0.0084507
-3.79471e-19
0.0084507
-5.42101e-19
0.0084507
1.89735e-19
0.0084507
6.23416e-19
0.0084507
1.70762e-18
0.0084507
1.30104e-18
0.0084507
1.21973e-17
0.0084507
7.02021e-17
0.0084507
6.8134e-16
0.0084507
3.32999e-15
0.0084507
1.81273e-15
0.0084507
-2.61533e-13
0.0084507
-1.23526e-12
0.0084507
8.32817e-13
0.0084507
8.49087e-11
0.0084507
8.92019e-10
0.00845065
-4.41522e-09
1.03291e-07
0.00845076
0.0084507
-4.06576e-19
0.0084507
-9.75782e-19
0.0084507
-1.27394e-18
0.0084507
-1.51788e-18
0.0084507
-1.40946e-18
0.0084507
-1.49078e-18
0.0084507
-1.02999e-18
0.0084507
-7.04731e-19
0.0084507
-5.42101e-19
0.0084507
2.43945e-19
0.0084507
-1.89735e-19
0.0084507
-1.16552e-18
0.0084507
-3.08998e-18
0.0084507
2.62919e-18
0.0084507
8.37546e-18
0.0084507
1.80682e-16
0.0084507
1.34585e-15
0.0084507
9.89641e-15
0.0084507
2.87166e-14
0.0084507
3.72809e-13
0.0084507
-4.63753e-12
0.0084507
4.14326e-11
0.0084507
2.33758e-10
0.0084507
-2.18723e-09
4.44597e-08
0.00845069
0.0084507
-1.35525e-19
0.0084507
-2.71051e-19
0.0084507
-1.6263e-19
0.0084507
-4.60786e-19
0.0084507
4.33681e-19
0.0084507
-7.31836e-19
0.0084507
-6.50521e-19
0.0084507
-1.0571e-18
0.0084507
-1.57209e-18
0.0084507
-2.57498e-18
0.0084507
-3.1984e-18
0.0084507
-3.79471e-18
0.0084507
-3.71339e-18
0.0084507
4.06576e-19
0.0084507
6.72205e-18
0.0084507
8.80643e-17
0.0084507
5.50612e-16
0.0084507
2.74965e-15
0.0084507
-2.86194e-15
0.0084507
-7.75853e-14
0.0084507
2.71884e-13
0.0084507
4.14775e-12
0.0084507
3.19363e-11
0.0084507
-1.69568e-10
4.53455e-09
0.00845066
0.0084507
2.43945e-19
0.0084507
2.43945e-19
0.0084507
1.0842e-19
0.0084507
4.33681e-19
0.0084507
-1.6263e-19
0.0084507
-5.42101e-20
0.0084507
-1.16552e-18
0.0084507
-1.46367e-18
0.0084507
-2.52077e-18
0.0084507
-2.71051e-18
0.0084507
-3.00866e-18
0.0084507
-2.46656e-18
0.0084507
-2.38524e-18
0.0084507
-1.24683e-18
0.0084507
-2.30393e-18
0.0084507
2.53161e-17
0.0084507
1.76617e-16
0.0084507
1.77332e-15
0.0084507
-2.31125e-16
0.0084507
3.31895e-14
0.0084507
2.52975e-13
0.0084507
2.00285e-13
0.0084507
1.09398e-11
0.0084507
-1.97812e-10
1.34325e-09
0.00845067
0.0084507
1.89735e-19
0.0084507
6.50521e-19
0.0084507
4.87891e-19
0.0084507
1.11131e-18
0.0084507
1.6263e-19
0.0084507
1.13841e-18
0.0084507
-5.96311e-19
0.0084507
-5.42101e-19
0.0084507
-1.0842e-18
0.0084507
-1.40946e-18
0.0084507
-1.78893e-18
0.0084507
-1.70762e-18
0.0084507
-2.6834e-18
0.0084507
-3.46945e-18
0.0084507
-3.17129e-18
0.0084507
4.2826e-18
0.0084507
3.27971e-18
0.0084507
3.65295e-16
0.0084507
7.88622e-16
0.0084507
5.1701e-15
0.0084507
5.69511e-14
0.0084507
3.95267e-13
0.0084507
2.34362e-12
0.0084507
2.00029e-11
2.24586e-10
0.00845067
0.0084507
7.52316e-36
0.0084507
2.43945e-19
0.0084507
1.89735e-19
0.0084507
1.0842e-19
0.0084507
5.42101e-20
0.0084507
4.87891e-19
0.0084507
4.06576e-19
0.0084507
4.60786e-19
0.0084507
8.94467e-19
0.0084507
3.52366e-19
0.0084507
2.71051e-19
0.0084507
-4.06576e-19
0.0084507
-7.86047e-19
0.0084507
-1.0571e-18
0.0084507
-6.77626e-19
0.0084507
1.65341e-18
0.0084507
-5.12286e-18
0.0084507
1.278e-16
0.0084507
-9.30788e-17
0.0084507
2.84449e-15
0.0084507
1.21019e-14
0.0084507
3.34207e-14
0.0084507
5.43581e-13
0.0084507
-4.36275e-13
1.11876e-11
0.00845067
0.0084507
-3.52366e-19
0.0084507
-7.58942e-19
0.0084507
-1.68051e-18
0.0084507
-1.97867e-18
0.0084507
-2.46656e-18
0.0084507
-2.49366e-18
0.0084507
-1.84314e-18
0.0084507
-2.11419e-18
0.0084507
-2.03288e-18
0.0084507
-1.81604e-18
0.0084507
-1.27394e-18
0.0084507
-7.31836e-19
0.0084507
-3.79471e-19
0.0084507
1.24683e-18
0.0084507
1.89735e-18
0.0084507
2.79182e-18
0.0084507
5.23128e-18
0.0084507
3.68629e-17
0.0084507
1.35146e-16
0.0084507
1.37458e-15
0.0084507
1.07132e-14
0.0084507
8.76893e-14
0.0084507
7.7519e-13
0.0084507
6.07013e-12
5.89681e-11
0.00845067
0.0084507
0.0084507
0.0084507
0.0084507
0.0084507
0.0084507
0.0084507
0.0084507
0.0084507
0.0084507
0.0084507
0.0084507
0.0084507
0.0084507
0.0084507
0.0084507
0.0084507
0.0084507
0.0084507
0.0084507
0.0084507
0.0084507
0.0084507
0.0084507
0.00845067
0.00236528
0.00456536
-0.000824764
0.00318398
-0.00212029
0.00139289
-0.00221029
6.68352e-05
-0.00200811
-0.000180742
-0.00232477
0.000371634
-0.0030422
0.00079255
-0.00359411
0.000542207
-0.00396885
0.000354515
-0.00416506
0.000214221
-0.0042583
0.000111816
-0.00409134
-4.43151e-05
-0.00408807
-5.20977e-05
-0.00420134
2.44822e-05
-0.00428328
4.49807e-05
-0.00430918
1.56217e-05
-0.00429647
-2.31641e-05
-0.00428168
-2.60836e-05
-0.00426934
-2.36642e-05
-0.00425502
-2.10202e-05
-0.00423815
-1.90087e-05
-0.00423088
-1.58269e-05
-0.00422919
-4.17319e-06
-0.00422664
1.79454e-06
-0.00422327
1.88136e-06
-0.00422837
6.17828e-06
-0.0042275
7.26202e-07
-0.00424297
1.57926e-06
-0.00424082
-1.15453e-05
-0.00425379
-1.10459e-05
-0.00425077
-2.52956e-05
-0.0042343
-3.05428e-05
-0.00419408
-4.01642e-05
-0.00411706
-5.63108e-05
-0.00403258
-8.38135e-05
-0.00395959
-9.44986e-05
-0.0038532
-0.000116506
-0.00369611
-0.000135775
-0.00349549
-0.000186468
-0.00330248
-0.000183887
-0.00311864
-0.000187024
-0.00285058
-0.000243414
-0.00255638
-0.000288584
-0.00227518
-0.000277068
-0.00196885
-0.00029061
-0.00170977
-0.000253468
-0.00145907
-0.000253061
-0.00115069
-0.000312621
-0.000800346
-0.000347724
-0.000446112
-0.000352651
-9.87315e-05
-0.000344097
0.000246743
-0.000341261
0.000573747
-0.000324841
0.000872251
-0.00029586
0.00115196
-0.0002787
0.00141209
-0.000258786
0.00165904
-0.000240507
0.00189586
-0.000229151
0.00211693
-0.000212289
0.00232471
-0.000196185
0.00252316
-0.000183968
0.0027085
-0.000170295
0.00287833
-0.000154571
0.00303447
-0.000140585
0.00317849
-0.000127091
0.00331198
-0.000116086
0.00343616
-0.000105593
0.00355287
-9.68234e-05
0.00366148
-8.75872e-05
0.00376233
-7.92976e-05
0.00385604
-7.1261e-05
0.00394437
-6.43422e-05
0.00402675
-5.70346e-05
0.00410557