/*--------------------------------*- C++ -*----------------------------------*\
| =========                 |                                                 |
| \\      /  F ield         | OpenFOAM: The Open Source CFD Toolbox           |
|  \\    /   O peration     | Version:  v2106                                 |
|   \\  /    A nd           | Website:  www.openfoam.com                      |
|    \\/     M anipulation  |                                                 |
\*---------------------------------------------------------------------------*/
FoamFile
{
    version     2.0;
    format      ascii;
    arch        "LSB;label=32;scalar=64";
    class       volScalarField;
    location    "4";
    object      rho;
}
// * * * * * * * * * * * * * * * * * * * * * * * * * * * * * * * * * * * * * //

dimensions      [1 -3 0 0 0 0 0];

internalField   nonuniform List<scalar> 
5250
(
1.40845
1.40845
1.40845
1.40845
1.40845
1.40845
1.40845
1.40845
1.40845
1.40835
1.40821
1.40215
1.40054
1.59615
2.12484
5.73934
6.35862
6.19535
6.2563
6.41659
6.46975
6.5454
6.61217
6.67264
6.71456
1.40845
1.40845
1.40845
1.40845
1.40845
1.40845
1.40845
1.40845
1.40845
1.40835
1.40821
1.40232
1.40019
1.5905
2.10677
5.67458
6.39424
6.20403
6.26666
6.42492
6.47459
6.54778
6.61529
6.67524
6.71647
1.40845
1.40845
1.40845
1.40845
1.40845
1.40845
1.40845
1.40845
1.40845
1.40834
1.40828
1.40218
1.40197
1.57954
2.06219
5.52591
6.44275
6.1944
6.26782
6.42255
6.47039
6.54049
6.60585
6.66339
6.70279
1.40845
1.40845
1.40845
1.40845
1.40845
1.40845
1.40845
1.40845
1.40845
1.40837
1.40817
1.40352
1.39925
1.55953
1.99642
5.30459
6.52326
6.17678
6.25468
6.41634
6.45712
6.52385
6.58321
6.64042
6.67666
1.40845
1.40845
1.40845
1.40845
1.40845
1.40845
1.40845
1.40845
1.40845
1.40841
1.4081
1.40532
1.39478
1.53143
1.95481
5.00553
6.685
6.17838
6.26259
6.39908
6.4371
6.49455
6.55261
6.60138
6.64142
1.40845
1.40845
1.40845
1.40845
1.40845
1.40845
1.40845
1.40845
1.40845
1.40842
1.40815
1.40586
1.39532
1.50476
1.96826
4.64105
7.00299
6.22501
6.32301
6.40809
6.41456
6.45327
6.49795
6.55536
6.57893
1.40845
1.40845
1.40845
1.40845
1.40845
1.40845
1.40845
1.40845
1.40845
1.40843
1.40819
1.40682
1.39471
1.47191
2.0051
4.13038
7.4739
6.43454
6.46773
6.46698
6.41308
6.41369
6.43612
6.463
6.51143
1.40845
1.40845
1.40845
1.40845
1.40845
1.40845
1.40845
1.40845
1.40845
1.40843
1.40827
1.40722
1.39533
1.44685
1.89456
3.46904
7.53227
6.48674
6.63985
6.58616
6.4553
6.36669
6.36703
6.38024
6.39117
1.40845
1.40845
1.40845
1.40845
1.40845
1.40845
1.40845
1.40845
1.40845
1.40844
1.40829
1.40759
1.39666
1.42824
1.78797
2.86189
7.04765
6.45857
6.56334
6.65788
6.50984
6.36615
6.26671
6.21546
6.22552
1.40845
1.40845
1.40845
1.40845
1.40845
1.40845
1.40845
1.40845
1.40845
1.40845
1.40829
1.40799
1.39862
1.41584
1.70807
2.50183
6.34901
6.24787
6.39746
6.60527
6.44636
6.35435
6.15208
6.1449
5.97078
1.40845
1.40845
1.40845
1.40845
1.40845
1.40845
1.40845
1.40845
1.40845
1.40846
1.40829
1.40834
1.39929
1.41416
1.62753
2.20631
5.79952
6.006
6.13372
6.35788
6.40331
6.28675
6.00343
5.9086
4.9186
1.40845
1.40845
1.40845
1.40845
1.40845
1.40845
1.40845
1.40845
1.40845
1.40845
1.40837
1.4082
1.4035
1.39965
1.54947
1.95637
5.00221
6.1607
6.04745
6.07274
6.16545
6.19873
5.8171
5.55741
5.0874
1.40845
1.40845
1.40845
1.40845
1.40845
1.40845
1.40845
1.40845
1.40845
1.40844
1.40847
1.40791
1.40805
1.38698
1.47885
1.80143
4.17827
6.30312
5.99497
5.8904
5.88485
5.90495
5.7546
5.38662
5.14616
1.40845
1.40845
1.40845
1.40845
1.40845
1.40845
1.40845
1.40845
1.40845
1.40845
1.40843
1.40827
1.40743
1.3959
1.43957
1.83262
3.26099
6.50931
5.91648
5.84305
5.7835
5.72398
5.5845
5.33
5.13343
1.40845
1.40845
1.40845
1.40845
1.40845
1.40845
1.40845
1.40845
1.40845
1.40845
1.40843
1.40839
1.40757
1.39783
1.41538
1.72556
2.5947
6.11044
5.95069
5.7975
5.69975
5.58321
5.43713
5.21684
5.04383
1.40845
1.40845
1.40845
1.40845
1.40845
1.40845
1.40845
1.40845
1.40845
1.40845
1.40845
1.40833
1.40827
1.40153
1.40461
1.59105
2.11637
5.23543
5.96886
5.82443
5.64293
5.46369
5.29177
5.09129
4.90996
1.40845
1.40845
1.40845
1.40845
1.40845
1.40845
1.40845
1.40845
1.40845
1.40845
1.40845
1.40841
1.40817
1.40559
1.39731
1.49625
1.7561
4.08334
5.97774
5.86931
5.62888
5.4015
5.20842
5.0137
4.78918
1.40845
1.40845
1.40845
1.40845
1.40845
1.40845
1.40845
1.40845
1.40845
1.40845
1.40845
1.40845
1.40822
1.40773
1.39546
1.43058
1.73567
2.95659
5.78826
5.75531
5.56355
5.38206
5.18548
4.97815
4.73716
1.40845
1.40845
1.40845
1.40845
1.40845
1.40845
1.40845
1.40845
1.40845
1.40845
1.40845
1.40845
1.40831
1.4081
1.40012
1.4094
1.67244
2.31462
5.16427
5.68654
5.62823
5.4085
5.18736
4.95982
4.72008
1.40845
1.40845
1.40845
1.40845
1.40845
1.40845
1.40845
1.40845
1.40845
1.40845
1.40845
1.40845
1.40841
1.40813
1.40536
1.39643
1.51824
1.81954
4.03426
5.66885
5.70276
5.45345
5.20909
4.96286
4.7155
1.40845
1.40845
1.40845
1.40845
1.40845
1.40845
1.40845
1.40845
1.40845
1.40845
1.40845
1.40845
1.40845
1.40818
1.40791
1.3942
1.43537
1.69716
2.87012
5.35393
5.51316
5.41074
5.21109
4.98628
4.73974
1.40845
1.40845
1.40845
1.40845
1.40845
1.40845
1.40845
1.40845
1.40845
1.40845
1.40845
1.40845
1.40844
1.40837
1.40787
1.40322
1.40196
1.64509
2.16652
4.5928
5.40626
5.44046
5.25819
5.03488
4.7897
1.40845
1.40845
1.40845
1.40845
1.40845
1.40845
1.40845
1.40845
1.40845
1.40845
1.40845
1.40845
1.40844
1.40846
1.40797
1.40759
1.38651
1.4875
1.66613
3.46235
5.29676
5.35865
5.23809
5.04757
4.82674
1.40845
1.40845
1.40845
1.40845
1.40845
1.40845
1.40845
1.40845
1.40845
1.40845
1.40845
1.40845
1.40845
1.40844
1.40833
1.40775
1.40141
1.41356
1.61723
2.36137
4.70749
5.19942
5.23716
5.07126
4.87179
1.40845
1.40845
1.40845
1.40845
1.40845
1.40845
1.40845
1.40845
1.40845
1.40845
1.40845
1.40845
1.40845
1.40843
1.4085
1.40761
1.40825
1.37875
1.53723
1.80444
3.61999
5.14838
5.18615
5.0639
4.89526
1.40845
1.40845
1.40845
1.40845
1.40845
1.40845
1.40845
1.40845
1.40845
1.40845
1.40845
1.40845
1.40845
1.40845
1.40844
1.40831
1.4078
1.39985
1.41953
1.61962
2.47351
4.65179
5.04108
5.06412
4.91268
1.40845
1.40845
1.40845
1.40845
1.40845
1.40845
1.40845
1.40845
1.40845
1.40845
1.40845
1.40845
1.40845
1.40846
1.40842
1.40853
1.40737
1.40836
1.37574
1.56361
1.86101
3.61364
5.0157
5.0546
4.93668
1.40845
1.40845
1.40845
1.40845
1.40845
1.40845
1.40845
1.40845
1.40845
1.40845
1.40845
1.40845
1.40845
1.40845
1.40845
1.40844
1.4083
1.40789
1.39867
1.42196
1.58752
2.47762
4.50189
4.9255
4.94587
1.40845
1.40845
1.40845
1.40845
1.40845
1.40845
1.40845
1.40845
1.40845
1.40845
1.40845
1.40845
1.40845
1.40845
1.40845
1.40843
1.40871
1.40726
1.40788
1.3757
1.53827
1.78906
3.45051
4.84506
4.90965
1.40845
1.40845
1.40845
1.40845
1.40845
1.40845
1.40845
1.40845
1.40845
1.40845
1.40845
1.40845
1.40845
1.40845
1.40845
1.40845
1.40843
1.40831
1.40767
1.39975
1.40754
1.57379
2.42387
4.23761
4.80069
1.40845
1.40845
1.40845
1.40845
1.40845
1.40845
1.40845
1.40845
1.40845
1.40845
1.40845
1.40845
1.40845
1.40845
1.40845
1.40845
1.40845
1.40843
1.4081
1.40686
1.38925
1.51045
1.71233
3.12618
4.63052
1.40845
1.40845
1.40845
1.40845
1.40845
1.40845
1.40845
1.40845
1.40845
1.40845
1.40845
1.40845
1.40845
1.40845
1.40845
1.40845
1.40845
1.40845
1.40815
1.40565
1.43744
1.30516
1.43039
2.06239
3.80395
1.40845
1.40845
1.40845
1.40845
1.40845
1.40845
1.40845
1.40845
1.40845
1.40845
1.40845
1.40845
1.40845
1.40845
1.40845
1.40845
1.40845
1.40844
1.40845
1.40805
1.40844
1.39164
1.46055
1.53531
2.76357
1.40845
1.40845
1.40845
1.40845
1.40845
1.40845
1.40845
1.40845
1.40845
1.40845
1.40845
1.40845
1.40845
1.40845
1.40845
1.40845
1.40845
1.40845
1.40843
1.40851
1.40772
1.41176
1.35927
1.4733
1.82845
1.40845
1.40845
1.40845
1.40845
1.40845
1.40845
1.40845
1.40845
1.40845
1.40845
1.40845
1.40845
1.40845
1.40845
1.40845
1.40845
1.40845
1.40845
1.40845
1.40843
1.40831
1.40757
1.39927
1.42875
1.53461
1.40845
1.40845
1.40845
1.40845
1.40845
1.40845
1.40845
1.40845
1.40845
1.40845
1.40845
1.40845
1.40845
1.40845
1.40845
1.40845
1.40845
1.40845
1.40845
1.40845
1.40843
1.40823
1.40779
1.38066
1.50313
1.40845
1.40845
1.40845
1.40845
1.40845
1.40845
1.40845
1.40845
1.40845
1.40845
1.40845
1.40845
1.40845
1.40845
1.40845
1.40845
1.40845
1.40845
1.40845
1.40844
1.4084
1.40923
1.40544
1.43122
1.30763
1.40845
1.40845
1.40845
1.40845
1.40845
1.40845
1.40845
1.40845
1.40845
1.40845
1.40845
1.40845
1.40845
1.40845
1.40845
1.40845
1.40845
1.40845
1.40845
1.40845
1.40844
1.40848
1.40809
1.40865
1.39502
1.40845
1.40845
1.40845
1.40845
1.40845
1.40845
1.40845
1.40845
1.40845
1.40845
1.40845
1.40845
1.40845
1.40845
1.40845
1.40845
1.40845
1.40845
1.40845
1.40845
1.40845
1.40846
1.40844
1.40842
1.40803
1.40845
1.40845
1.40845
1.40845
1.40845
1.40845
1.40845
1.40845
1.40845
1.40845
1.40845
1.40845
1.40845
1.40845
1.40845
1.40845
1.40845
1.40845
1.40845
1.40845
1.40845
1.40843
1.40846
1.40812
1.40662
1.40845
1.40845
1.40845
1.40845
1.40845
1.40845
1.40845
1.40845
1.40845
1.40845
1.40845
1.40845
1.40845
1.40845
1.40845
1.40845
1.40845
1.40845
1.40845
1.40845
1.40845
1.40845
1.40845
1.40847
1.40817
1.40845
1.40845
1.40845
1.40845
1.40845
1.40845
1.40845
1.40845
1.40845
1.40845
1.40845
1.40845
1.40845
1.40845
1.40845
1.40845
1.40845
1.40845
1.40845
1.40845
1.40845
1.40845
1.40845
1.40845
1.40843
1.40845
1.40845
1.40845
1.40845
1.40845
1.40845
1.40845
1.40845
1.40845
1.40845
1.40845
1.40845
1.40845
1.40845
1.40845
1.40845
1.40845
1.40845
1.40845
1.40845
1.40845
1.40845
1.40845
1.40845
1.40855
1.40845
1.40845
1.40845
1.40845
1.40845
1.40845
1.40845
1.40845
1.40845
1.40845
1.40845
1.40845
1.40845
1.40845
1.40845
1.40845
1.40845
1.40845
1.40845
1.40845
1.40845
1.40845
1.40845
1.40845
1.40845
1.40845
1.40845
1.40845
1.40845
1.40845
1.40845
1.40845
1.40845
1.40845
1.40845
1.40845
1.40845
1.40845
1.40845
1.40845
1.40845
1.40845
1.40845
1.40845
1.40845
1.40845
1.40845
1.40845
1.40845
1.40846
1.40845
1.40845
1.40845
1.40845
1.40845
1.40845
1.40845
1.40845
1.40845
1.40845
1.40845
1.40845
1.40845
1.40845
1.40845
1.40845
1.40845
1.40845
1.40845
1.40845
1.40845
1.40845
1.40845
1.40845
1.40845
1.40845
1.40845
1.40845
1.40845
1.40845
1.40845
1.40845
1.40845
1.40845
1.40845
1.40845
1.40845
1.40845
1.40845
1.40845
1.40845
1.40845
1.40845
1.40845
1.40845
1.40845
1.40845
1.40845
1.40845
1.40845
1.40845
1.40845
1.40845
1.40845
1.40845
1.40845
1.40845
1.40845
1.40845
1.40845
1.40845
1.40845
1.40845
1.40845
1.40845
1.40845
1.40845
1.40845
1.40845
1.40845
1.40845
1.40845
1.40845
1.40845
1.40845
1.40845
1.40845
1.40845
1.40845
1.40845
1.40845
1.40845
1.40845
1.40845
1.40845
1.40845
1.40845
1.40845
1.40845
1.40845
1.40845
1.40845
1.40845
1.40845
1.40845
1.40845
1.40845
1.40845
1.40845
1.40845
1.40845
1.40845
1.40845
1.40845
1.40845
1.40845
1.40845
1.40845
1.40845
1.40845
1.40845
1.40845
1.40845
1.40845
1.40845
1.40845
1.40845
1.40845
1.40845
1.40845
1.40845
1.40845
1.40845
1.40845
1.40845
1.87219
2.09357
2.39248
2.1232
2.27417
2.1451
1.97382
1.7564
1.67926
1.6493
1.65219
1.66718
1.5414
1.47001
1.43946
1.43614
1.44043
1.44132
1.44157
1.43974
1.43583
1.42945
1.42645
1.42488
1.42436
1.42469
1.43108
1.43907
1.4611
1.48488
1.52696
1.57399
1.62939
1.68368
1.7354
1.78564
1.85495
1.92806
1.99905
2.05817
2.11728
2.20283
2.26663
2.32426
2.39328
2.44229
2.47598
2.51081
2.55329
2.58391
2.60977
2.6297
2.64702
2.6606
2.66761
2.67205
2.67369
2.67545
2.67469
2.67215
2.66936
2.66531
2.65905
2.65167
2.64321
2.63419
2.62469
2.61509
2.60571
2.59617
2.58694
2.57852
2.57074
2.56416
2.55871
2.55327
2.54841
2.54499
2.54284
2.5417
2.5428
2.54651
2.55036
2.55687
2.56788
2.58238
2.59811
2.61719
2.64106
2.66894
2.70031
2.73473
2.7718
2.81072
2.84929
2.88896
2.92628
2.96568
3.00002
3.05049
2.80802
2.50457
2.21449
2.16444
2.39886
2.15396
1.92468
1.60034
1.50151
1.45888
1.44365
1.428
1.36632
1.31986
1.29573
1.29017
1.29194
1.29306
1.29503
1.29561
1.29597
1.28729
1.28202
1.28248
1.28407
1.28567
1.29606
1.30753
1.33081
1.35767
1.38925
1.4333
1.47558
1.52836
1.57298
1.62154
1.68801
1.75987
1.85223
1.92996
2.00049
2.07783
2.17312
2.23324
2.28407
2.35628
2.41312
2.44835
2.49162
2.53918
2.58261
2.6166
2.65398
2.68091
2.69539
2.70789
2.71597
2.72225
2.72665
2.72565
2.7244
2.72349
2.71769
2.70792
2.69719
2.68233
2.66473
2.64549
2.62642
2.60644
2.58691
2.56784
2.54929
2.53196
2.51613
2.50135
2.48745
2.47583
2.46584
2.45704
2.45052
2.44547
2.44138
2.44063
2.44355
2.44952
2.45791
2.47005
2.48689
2.50845
2.53399
2.56353
2.59641
2.6314
2.66707
2.70358
2.73589
2.76948
2.79425
2.82686
3.74573
3.09215
2.55543
2.34581
2.32305
2.18336
1.9018
1.60772
1.50938
1.47803
1.47361
1.44976
1.42271
1.24005
1.17744
1.17422
1.19201
1.20672
1.21331
1.21521
1.21575
1.21312
1.21329
1.21201
1.21371
1.21327
1.21807
1.22086
1.24333
1.26201
1.29819
1.34936
1.39357
1.4509
1.51611
1.57786
1.63924
1.70032
1.77431
1.84061
1.90958
1.99095
2.10895
2.20484
2.31204
2.41014
2.49226
2.5574
2.62796
2.69967
2.75612
2.81197
2.85592
2.89177
2.91283
2.92663
2.93578
2.94368
2.95064
2.95313
2.95381
2.95444
2.95195
2.94335
2.93359
2.92255
2.9089
2.89256
2.8756
2.85764
2.84045
2.82006
2.8008
2.78062
2.76161
2.74218
2.72526
2.70751
2.69256
2.67979
2.66822
2.65837
2.64892
2.64074
2.63537
2.63213
2.63041
2.63111
2.63462
2.64127
2.65072
2.66293
2.6795
2.69843
2.71956
2.74324
2.76391
2.78688
2.80627
2.82889
4.14098
3.47891
2.93785
2.52606
2.39033
2.28843
2.10272
1.83021
1.66167
1.58314
1.54454
1.49572
1.37334
1.17766
1.11321
1.10663
1.12343
1.17885
1.22523
1.19853
1.19415
1.18666
1.17481
1.17485
1.17925
1.17638
1.19006
1.19458
1.21644
1.24183
1.26955
1.31051
1.35454
1.38359
1.44265
1.50674
1.58484
1.66285
1.7784
1.90965
2.02894
2.14001
2.2719
2.38811
2.49335
2.61215
2.70559
2.77128
2.84777
2.90887
2.97542
3.02369
3.06347
3.10353
3.12549
3.13966
3.15025
3.15749
3.16164
3.1576
3.15365
3.15098
3.14753
3.13746
3.12333
3.10742
3.09039
3.07257
3.05369
3.03461
3.01333
2.99444
2.97547
2.95644
2.93572
2.91793
2.89558
2.87714
2.86005
2.84536
2.83014
2.8175
2.80978
2.80397
2.79894
2.79667
2.79609
2.79844
2.80383
2.81186
2.82127
2.83181
2.84245
2.85578
2.86721
2.88078
2.8879
2.90199
2.915
2.925
4.4006
3.79185
3.267
2.85848
2.59314
2.43995
2.24814
1.94963
1.77854
1.66151
1.62415
1.6123
1.56167
1.43012
1.28775
1.17224
1.1342
1.13405
1.14512
1.1517
1.16464
1.17057
1.1701
1.16522
1.16918
1.16978
1.18935
1.19887
1.20101
1.20679
1.23024
1.27277
1.33437
1.41034
1.49818
1.59911
1.70497
1.79971
1.91838
2.03699
2.15269
2.28071
2.39451
2.52217
2.63716
2.76934
2.87101
2.96276
3.03122
3.07752
3.13505
3.18687
3.22367
3.25609
3.28702
3.29479
3.30253
3.3089
3.31229
3.31129
3.30651
3.30431
3.30059
3.28713
3.27209
3.25569
3.23859
3.22045
3.19947
3.17799
3.15609
3.13678
3.11664
3.09622
3.07736
3.05463
3.03313
3.01363
2.99535
2.98039
2.96641
2.94765
2.93436
2.92929
2.9259
2.92383
2.9222
2.92304
2.928
2.9376
2.95056
2.9658
2.98183
2.99889
3.01782
3.03866
3.05234
3.06597
3.08088
3.08339
4.50669
4.06072
3.60863
3.19842
2.93642
2.66484
2.45445
2.16976
1.92829
1.80205
1.70484
1.67069
1.62543
1.51065
1.41734
1.35109
1.30685
1.262
1.22737
1.198
1.19751
1.19713
1.19957
1.18617
1.18709
1.17662
1.183
1.18791
1.20173
1.23112
1.27074
1.32274
1.38803
1.46808
1.56104
1.66851
1.77235
1.88314
2.01707
2.13017
2.27214
2.41631
2.52851
2.66563
2.76233
2.8587
2.95616
3.06166
3.13943
3.19263
3.24802
3.30325
3.33573
3.3706
3.40163
3.41366
3.42729
3.42979
3.42465
3.42879
3.42745
3.42339
3.41921
3.40435
3.38927
3.37385
3.35799
3.3404
3.31872
3.2934
3.27031
3.24943
3.22966
3.21049
3.18884
3.16673
3.1483
3.12668
3.10814
3.09185
3.07557
3.05935
3.04277
3.03138
3.02805
3.02688
3.02604
3.02644
3.03001
3.03866
3.05262
3.07097
3.09153
3.11404
3.13491
3.16475
3.18555
3.21076
3.23016
3.23149
4.51997
4.14885
3.7854
3.47498
3.26523
3.00675
2.73182
2.48413
2.2059
1.98602
1.84299
1.77278
1.71147
1.61523
1.52049
1.45512
1.41795
1.39069
1.36182
1.32466
1.28671
1.25427
1.24199
1.22687
1.23256
1.22857
1.23289
1.24781
1.272
1.29565
1.33085
1.38522
1.45696
1.54296
1.62975
1.73272
1.84037
1.96915
2.08542
2.1801
2.30997
2.43773
2.56311
2.69429
2.80035
2.92596
3.01636
3.11547
3.18768
3.26027
3.32652
3.38402
3.41954
3.45146
3.47626
3.49771
3.50709
3.51287
3.51509
3.51651
3.51631
3.507
3.49979
3.48591
3.47126
3.45825
3.44265
3.41941
3.39619
3.37551
3.35638
3.33782
3.31637
3.29497
3.27367
3.25446
3.23343
3.2118
3.19414
3.17759
3.15934
3.14617
3.13029
3.11619
3.10839
3.10651
3.10579
3.10649
3.10962
3.11701
3.1299
3.14881
3.17223
3.19936
3.22642
3.25797
3.29539
3.33122
3.35393
3.36152
4.46045
4.1995
3.87721
3.63875
3.42897
3.24997
3.03218
2.78492
2.52721
2.26534
2.07063
1.94431
1.85617
1.75751
1.6385
1.55669
1.50643
1.48227
1.46532
1.44145
1.41372
1.37881
1.35436
1.32486
1.3138
1.30594
1.32129
1.35124
1.39117
1.42064
1.46222
1.51057
1.57404
1.6462
1.7212
1.80877
1.8898
1.98747
2.07045
2.15412
2.26361
2.36819
2.47854
2.60434
2.73229
2.8909
3.0359
3.15687
3.21682
3.28615
3.33526
3.39404
3.43992
3.49883
3.53142
3.54747
3.54866
3.55375
3.56045
3.56024
3.55999
3.55106
3.54613
3.53881
3.52459
3.50882
3.48908
3.467
3.44899
3.4316
3.41324
3.39112
3.3689
3.34703
3.32811
3.30905
3.28814
3.2683
3.25164
3.23354
3.21906
3.20154
3.18823
3.17529
3.16621
3.16218
3.16094
3.16197
3.1657
3.17306
3.18511
3.20326
3.22746
3.25801
3.2928
3.32786
3.37813
3.42413
3.45971
3.47251
4.43874
4.18699
3.93216
3.70766
3.50777
3.37747
3.22102
3.04167
2.7989
2.58134
2.371
2.21042
2.06619
1.93497
1.79842
1.69345
1.62321
1.58119
1.55651
1.53517
1.51249
1.49029
1.46275
1.44727
1.42556
1.44668
1.45137
1.53533
1.60607
1.64322
1.68713
1.73016
1.74298
1.78374
1.84109
1.90368
1.96173
2.02727
2.08477
2.15295
2.2282
2.29234
2.38001
2.4717
2.57803
2.71454
2.86131
3.03652
3.22372
3.3178
3.35374
3.38182
3.41143
3.46138
3.50299
3.54966
3.57436
3.56696
3.57098
3.56963
3.57296
3.5682
3.55617
3.54903
3.53873
3.5232
3.50738
3.48739
3.46886
3.45186
3.43352
3.4127
3.39251
3.37359
3.35479
3.33262
3.31532
3.29439
3.27713
3.26204
3.24663
3.23191
3.22049
3.2077
3.19885
3.19416
3.19286
3.19318
3.19604
3.20279
3.21467
3.23292
3.25833
3.29138
3.33182
3.37499
3.43056
3.4979
3.54073
3.56055
4.44265
4.17099
3.94403
3.75284
3.5666
3.45116
3.3335
3.19139
3.02122
2.82183
2.64585
2.48389
2.34229
2.18448
2.03466
1.89269
1.78488
1.71823
1.67158
1.6439
1.61467
1.59497
1.56532
1.55492
1.54031
1.59076
1.63229
1.84489
1.91386
1.9633
2.01621
2.02867
1.99732
1.99875
2.00514
2.01911
2.04568
2.08655
2.12729
2.17269
2.20985
2.24719
2.30377
2.35282
2.43432
2.53362
2.63536
2.77255
2.93352
3.15586
3.32732
3.38977
3.40305
3.41847
3.44768
3.48129
3.53982
3.57055
3.57651
3.57069
3.56143
3.55611
3.54926
3.54723
3.54024
3.51961
3.50521
3.49047
3.47013
3.45177
3.43579
3.41815
3.39416
3.3727
3.351
3.33416
3.31476
3.29533
3.27966
3.26451
3.25181
3.24047
3.22678
3.21321
3.202
3.19736
3.19691
3.19809
3.20109
3.20732
3.21887
3.23763
3.26464
3.30057
3.34635
3.39784
3.46467
3.54905
3.6018
3.63289
4.47736
4.21027
3.95528
3.77107
3.60443
3.4963
3.39401
3.26951
3.12966
2.98553
2.82565
2.67508
2.54856
2.41545
2.2731
2.12882
2.00367
1.90275
1.83421
1.79037
1.75578
1.72478
1.7002
1.68991
1.70606
1.75609
2.11559
2.25866
2.31393
2.35833
2.38119
2.30263
2.24631
2.20386
2.18705
2.17501
2.17579
2.18228
2.18975
2.20982
2.2281
2.24608
2.27005
2.29499
2.34311
2.37081
2.41996
2.52017
2.65348
2.80085
2.98201
3.27067
3.4379
3.42341
3.4224
3.44169
3.46785
3.5034
3.54182
3.55328
3.54941
3.54632
3.5337
3.52738
3.52223
3.51197
3.49109
3.47967
3.47037
3.45719
3.43879
3.41428
3.389
3.3676
3.35054
3.33542
3.3119
3.29493
3.28104
3.2628
3.24711
3.2363
3.22482
3.21184
3.19923
3.19289
3.19256
3.19433
3.19792
3.20389
3.21398
3.23081
3.25683
3.29363
3.34283
3.40274
3.47593
3.57774
3.6483
3.68812
4.52762
4.26248
4.01368
3.79717
3.63199
3.52466
3.42631
3.32315
3.21756
3.08809
2.94972
2.81062
2.68466
2.5604
2.44434
2.30869
2.17598
2.06561
1.9885
1.93431
1.90579
1.88095
1.86896
1.87876
1.96662
2.1072
2.68867
2.74458
2.77674
2.77574
2.70688
2.60673
2.53023
2.46245
2.42129
2.38012
2.35512
2.31983
2.2926
2.26922
2.26174
2.26638
2.27144
2.27262
2.27611
2.27762
2.30672
2.36298
2.4213
2.52083
2.68275
2.83936
3.13429
3.38233
3.46765
3.45438
3.44081
3.45094
3.47577
3.50844
3.52822
3.52584
3.52239
3.50857
3.50443
3.49949
3.49086
3.47525
3.46684
3.45431
3.43172
3.41085
3.39086
3.37345
3.35748
3.33272
3.31163
3.29724
3.28292
3.26724
3.25001
3.23519
3.22405
3.2113
3.20014
3.18972
3.18696
3.18737
3.19134
3.19886
3.20976
3.22518
3.24854
3.28338
3.3335
3.39946
3.47873
3.60347
3.69015
3.73961
4.58182
4.32013
4.07747
3.85414
3.68155
3.55231
3.44282
3.35425
3.26382
3.15183
3.03691
2.90903
2.79142
2.66962
2.55866
2.44487
2.3053
2.18514
2.09431
2.0276
2.00696
1.99873
2.01314
2.07277
2.25283
2.6605
3.14931
3.19818
3.19424
3.1273
2.99461
2.89172
2.79983
2.72213
2.64999
2.59209
2.53798
2.48525
2.44488
2.40714
2.37051
2.32121
2.28922
2.26418
2.25509
2.26081
2.26643
2.28356
2.29789
2.34467
2.41156
2.51535
2.68589
2.87646
3.24792
3.47094
3.48055
3.44784
3.44128
3.45162
3.48057
3.50929
3.52298
3.52213
3.50047
3.48723
3.48077
3.4745
3.46459
3.45204
3.43554
3.41775
3.39905
3.38213
3.36045
3.335
3.31887
3.30546
3.28503
3.27012
3.25708
3.24198
3.22985
3.2131
3.20013
3.19211
3.18779
3.18588
3.18687
3.19233
3.2032
3.21994
3.24381
3.27763
3.3268
3.39508
3.47701
3.62597
3.73024
3.79094
4.64991
4.39268
4.15274
3.9248
3.74724
3.59936
3.48542
3.39086
3.29555
3.19829
3.10199
2.98646
2.87478
2.76599
2.64656
2.54115
2.41244
2.28854
2.17876
2.09833
2.08329
2.09406
2.15128
2.33471
2.61547
3.29798
3.47344
3.48669
3.44245
3.33114
3.23156
3.12861
3.02795
2.9345
2.84543
2.77485
2.70445
2.64122
2.58558
2.53657
2.46934
2.42173
2.37863
2.33079
2.30518
2.27906
2.262
2.25274
2.24584
2.25344
2.26662
2.31295
2.40883
2.55685
2.74309
3.03958
3.37701
3.50546
3.48639
3.44068
3.44479
3.45536
3.49402
3.51069
3.50843
3.49987
3.48716
3.47163
3.46014
3.44768
3.4345
3.41811
3.4033
3.38606
3.3654
3.35032
3.33519
3.31612
3.29869
3.28659
3.27116
3.25203
3.23696
3.22307
3.20639
3.19496
3.19149
3.18967
3.18904
3.19113
3.1983
3.21274
3.23647
3.27194
3.32439
3.39693
3.47998
3.6544
3.78404
3.8494
4.70309
4.46664
4.24021
4.00421
3.82137
3.66303
3.53899
3.43707
3.33262
3.23643
3.14189
3.04193
2.94046
2.83861
2.72629
2.61476
2.50452
2.38144
2.24889
2.1774
2.16474
2.20529
2.35976
2.58062
3.23377
3.66131
3.67476
3.63012
3.5704
3.5052
3.42666
3.33795
3.22818
3.12469
3.02698
2.9404
2.85474
2.78163
2.71585
2.63953
2.57762
2.53282
2.47922
2.43298
2.3982
2.34231
2.28493
2.24123
2.23015
2.23232
2.23091
2.24269
2.26751
2.32096
2.42101
2.59289
2.76602
3.19521
3.49183
3.49926
3.45618
3.41963
3.42205
3.43066
3.46201
3.46943
3.4673
3.45698
3.44358
3.42563
3.41562
3.40788
3.39871
3.37446
3.35053
3.33637
3.32377
3.30751
3.29233
3.27911
3.26839
3.25349
3.23339
3.22268
3.21392
3.20194
3.19308
3.19093
3.19178
3.19545
3.20228
3.21417
3.23475
3.26891
3.3232
3.4022
3.4902
3.699
3.85109
3.91874
4.74043
4.52664
4.3193
4.08899
3.9029
3.73926
3.5998
3.48413
3.37978
3.28094
3.17176
3.07058
2.9838
2.88966
2.79773
2.6955
2.59932
2.43682
2.31954
2.3009
2.3096
2.41793
2.62822
3.22096
3.70219
3.74704
3.75072
3.73904
3.70701
3.65348
3.57981
3.48853
3.39239
3.28655
3.18817
3.09005
2.99844
2.92079
2.83453
2.75553
2.69443
2.6408
2.58068
2.52143
2.44675
2.39078
2.35167
2.31407
2.2881
2.25465
2.23903
2.2212
2.21528
2.21658
2.24614
2.31847
2.43705
2.62198
2.84716
3.27656
3.48573
3.51009
3.41327
3.39141
3.39611
3.4151
3.43788
3.4439
3.43905
3.43026
3.41026
3.39695
3.38099
3.36455
3.34857
3.33135
3.31428
3.30006
3.28679
3.26603
3.25391
3.24694
3.23576
3.21811
3.20847
3.20336
3.19592
3.19229
3.19076
3.19319
3.20056
3.21364
3.23449
3.26824
3.32445
3.40923
3.50623
3.75668
3.95128
3.99637
4.77982
4.5878
4.38629
4.16201
3.97301
3.81961
3.66747
3.5335
3.43034
3.33288
3.22452
3.12217
3.01742
2.92316
2.83066
2.74076
2.65776
2.51897
2.41098
2.42463
2.51966
2.76104
3.19213
3.67927
3.81114
3.81553
3.8154
3.80654
3.78315
3.74162
3.68211
3.60636
3.51868
3.42015
3.32135
3.21809
3.12663
3.0321
2.94853
2.87238
2.80668
2.7394
2.66409
2.59863
2.54102
2.49715
2.46017
2.41701
2.37778
2.31905
2.27575
2.22718
2.20641
2.18038
2.18451
2.18747
2.21849
2.30457
2.46639
2.66969
3.08586
3.41858
3.48156
3.47321
3.40145
3.38702
3.38667
3.41481
3.41962
3.4203
3.41536
3.38778
3.36511
3.35215
3.33904
3.32646
3.31204
3.29512
3.2838
3.27255
3.25123
3.23625
3.22986
3.2227
3.20838
3.19793
3.19325
3.19175
3.19096
3.19157
3.19564
3.20592
3.22599
3.26095
3.32213
3.41453
3.52618
3.83251
4.04363
4.07963
4.81483
4.64675
4.45314
4.23375
4.0276
3.88233
3.73338
3.59186
3.48351
3.38047
3.27917
3.18777
3.07746
2.98019
2.88081
2.77221
2.67867
2.59773
2.57334
2.63099
2.85555
3.2484
3.73084
3.84974
3.84842
3.84326
3.844
3.84288
3.83158
3.80322
3.75565
3.6906
3.61121
3.52327
3.43092
3.3346
3.24136
3.14714
3.06707
2.98832
2.91314
2.82778
2.76635
2.70955
2.65621
2.60132
2.5384
2.47694
2.42125
2.37264
2.32263
2.27977
2.23614
2.19965
2.16898
2.13838
2.15238
2.17996
2.23026
2.35658
2.53144
2.71277
3.18823
3.46175
3.47673
3.41724
3.36908
3.36789
3.37315
3.39393
3.39621
3.38671
3.37246
3.34796
3.32547
3.31456
3.30518
3.29348
3.28015
3.27064
3.25754
3.23673
3.22125
3.21493
3.21023
3.1994
3.1884
3.18397
3.18379
3.18532
3.189
3.19678
3.21379
3.24775
3.31239
3.41883
3.55815
3.92616
4.13152
4.15447
4.81466
4.66955
4.50807
4.30926
4.08807
3.92825
3.78143
3.64162
3.53614
3.43496
3.33033
3.23238
3.13789
3.05115
2.96628
2.83301
2.7374
2.72303
2.78166
2.98471
3.33966
3.86632
3.94004
3.93349
3.88437
3.87402
3.87608
3.87604
3.86762
3.84605
3.80888
3.75559
3.68802
3.61045
3.52444
3.43505
3.34467
3.25978
3.17451
3.09017
3.01105
2.93702
2.87438
2.80848
2.73759
2.66611
2.60645
2.54309
2.48592
2.43599
2.38659
2.3399
2.29837
2.24498
2.19041
2.16617
2.15794
2.13823
2.14716
2.16231
2.20911
2.35572
2.58823
2.91014
3.33169
3.4667
3.47695
3.38923
3.34745
3.3521
3.35777
3.36208
3.35804
3.3477
3.33451
3.32111
3.30277
3.2927
3.28066
3.26805
3.25803
3.24541
3.22646
3.20948
3.20131
3.19511
3.18677
3.17761
3.17447
3.17435
3.17778
3.18553
3.2014
3.23555
3.30344
3.42732
3.60974
4.01954
4.26234
4.24494
4.85968
4.70578
4.55071
4.38587
4.16626
3.98236
3.83488
3.68513
3.57592
3.48673
3.39233
3.28154
3.19475
3.11758
3.01713
2.9221
2.88369
2.92196
3.11246
3.53128
3.99871
4.0817
4.07794
3.97491
3.92347
3.91473
3.90826
3.90174
3.89253
3.87644
3.84975
3.81043
3.75604
3.68978
3.61185
3.52922
3.44047
3.35846
3.26261
3.18016
3.10583
3.02805
2.9598
2.87193
2.8041
2.73812
2.6784
2.61076
2.55118
2.49495
2.4431
2.38863
2.33749
2.29995
2.26105
2.22761
2.17431
2.13645
2.12868
2.08571
2.10821
2.15842
2.25789
2.43709
2.63192
3.12012
3.44018
3.44814
3.41504
3.34425
3.31351
3.31103
3.31985
3.3194
3.31834
3.31287
3.30351
3.29234
3.27723
3.26323
3.25067
3.24007
3.22816
3.21262
3.19702
3.18758
3.17943
3.17305
3.1668
3.16449
3.16522
3.1714
3.18684
3.22391
3.29727
3.44151
3.68315
4.15455
4.34815
4.33979
4.69485
4.65296
4.53588
4.3985
4.2111
4.03183
3.90178
3.74597
3.61947
3.53605
3.45217
3.3408
3.25154
3.17071
3.08056
3.04938
3.07192
3.25781
3.65663
4.23785
4.28856
4.26885
4.13628
4.0377
3.99297
3.97057
3.95742
3.94717
3.93612
3.9209
3.89732
3.86334
3.81717
3.75973
3.69193
3.61628
3.53349
3.44771
3.35618
3.27683
3.18991
3.11048
3.0259
2.95571
2.88693
2.81889
2.75041
2.69266
2.63393
2.57204
2.50947
2.45472
2.39804
2.35495
2.31133
2.26731
2.21873
2.18139
2.13365
2.10439
2.08295
2.08024
2.08599
2.15175
2.28613
2.49772
2.79167
3.25719
3.41441
3.42476
3.35299
3.29297
3.28705
3.2842
3.29721
3.30058
3.30118
3.29349
3.28392
3.26713
3.25069
3.23426
3.22125
3.2112
3.19865
3.18651
3.17474
3.16467
3.1583
3.15632
3.15599
3.15983
3.17346
3.21335
3.29702
3.43901
3.8116
4.35177
4.40522
4.4118
4.64908
4.67123
4.54538
4.41233
4.25775
4.07935
3.96992
3.82523
3.68874
3.58393
3.50509
3.40999
3.29936
3.21278
3.19144
3.21017
3.39116
3.69974
4.5013
4.51416
4.48125
4.3935
4.2499
4.15569
4.08712
4.0401
4.01086
3.99144
3.97384
3.95579
3.93298
3.90288
3.86344
3.81387
3.7551
3.68636
3.61191
3.52992
3.44936
3.36373
3.27917
3.19671
3.11465
3.04409
2.96805
2.89334
2.82327
2.76143
2.69668
2.635
2.57263
2.51415
2.45667
2.40409
2.35931
2.32157
2.28177
2.24555
2.20509
2.1588
2.0839
2.06225
2.03776
2.04516
2.07673
2.16949
2.3532
2.55369
3.05383
3.38369
3.39971
3.37843
3.30355
3.27519
3.27239
3.27646
3.2834
3.28213
3.27529
3.2668
3.25055
3.2313
3.21315
3.20209
3.19249
3.18259
3.17409
3.15989
3.14716
3.14465
3.1453
3.15001
3.1642
3.20674
3.30689
3.44813
4.01394
4.49294
4.51107
4.49338
4.33765
4.59447
4.61715
4.48962
4.35271
4.1608
4.00848
3.90344
3.75346
3.64516
3.56674
3.47181
3.36215
3.31001
3.33056
3.49237
3.76889
4.61887
4.75163
4.71396
4.62041
4.46706
4.36751
4.29102
4.20131
4.12337
4.07395
4.04093
4.01549
3.99142
3.96578
3.93588
3.89989
3.85609
3.80417
3.74396
3.67603
3.60209
3.52334
3.44094
3.36053
3.27771
3.1989
3.11755
3.04318
2.97028
2.89984
2.83294
2.76869
2.70839
2.64383
2.58015
2.51902
2.46947
2.41934
2.37454
2.32922
2.28932
2.2473
2.19929
2.1366
2.07592
2.05513
2.01233
2.01321
2.04574
2.12049
2.24471
2.4547
2.73002
3.19476
3.37781
3.39487
3.32727
3.27342
3.26852
3.26548
3.27056
3.27009
3.26553
3.2576
3.23728
3.21545
3.19687
3.18398
3.17628
3.16975
3.15434
3.13602
3.12908
3.12945
3.13537
3.15637
3.20865
3.34302
3.55065
4.26086
4.58653
4.60803
4.56577
3.3463
4.47839
4.58355
4.52255
4.39614
4.27483
4.10599
3.98265
3.8106
3.66563
3.58595
3.50311
3.45063
3.45836
3.59647
3.8421
4.67354
5.09867
5.07604
4.85228
4.66128
4.56996
4.48606
4.39804
4.30601
4.21299
4.14165
4.09421
4.05893
4.02786
3.99671
3.96397
3.92824
3.88747
3.84127
3.78805
3.72845
3.66224
3.59079
3.51586
3.43707
3.35784
3.27536
3.19639
3.11851
3.04178
2.96797
2.89909
2.8332
2.76824
2.70239
2.63776
2.57237
2.50871
2.45504
2.4052
2.36602
2.32672
2.28593
2.23344
2.18133
2.13162
2.08267
2.03162
2.01972
2.02086
2.02878
2.05925
2.14479
2.3179
2.51819
2.99113
3.31708
3.33489
3.31308
3.26023
3.24075
3.23736
3.24384
3.24483
3.2427
3.23622
3.21542
3.19245
3.17243
3.16362
3.15818
3.14564
3.12601
3.11485
3.11337
3.12005
3.14979
3.22016
3.40887
3.73166
4.51512
4.65913
4.68712
4.61691
2.41431
3.88137
4.40896
4.51849
4.42757
4.30932
4.18885
4.0383
3.91268
3.70643
3.60237
3.56585
3.57796
3.71464
3.98151
4.80091
5.37776
5.35323
5.12209
4.90643
4.8005
4.70368
4.60953
4.50676
4.40867