/*--------------------------------*- C++ -*----------------------------------*\
| =========                 |                                                 |
| \\      /  F ield         | OpenFOAM: The Open Source CFD Toolbox           |
|  \\    /   O peration     | Version:  v2106                                 |
|   \\  /    A nd           | Website:  www.openfoam.com                      |
|    \\/     M anipulation  |                                                 |
\*---------------------------------------------------------------------------*/
FoamFile
{
    version     2.0;
    format      ascii;
    arch        "LSB;label=32;scalar=64";
    class       volScalarField;
    location    "4";
    object      T;
}
// * * * * * * * * * * * * * * * * * * * * * * * * * * * * * * * * * * * * * //

dimensions      [0 0 0 1 0 0 0];

internalField   nonuniform List<scalar> 
5250
(
1
1
1
1
1
1
1
1
1.00002
1.00017
1.00155
1.01446
1.11319
1.51187
2.78854
2.64129
2.5203
2.51753
2.55934
2.55157
2.55492
2.56119
2.56014
2.55604
2.5502
1
1
1
1
1
1
1
1
1.00002
1.00017
1.00151
1.01407
1.11058
1.50367
2.77499
2.64877
2.5142
2.50993
2.5526
2.54529
2.54919
2.5568
2.55584
2.55197
2.5464
1
1
1
1
1
1
1
1
1.00002
1.00016
1.00144
1.01351
1.10644
1.48424
2.74506
2.65703
2.51136
2.49872
2.54138
2.53461
2.53859
2.54631
2.54541
2.54148
2.53573
1
1
1
1
1
1
1
1
1.00002
1.00015
1.00133
1.0123
1.0965
1.45749
2.70629
2.67414
2.50691
2.48429
2.5286
2.52087
2.52528
2.53387
2.53324
2.52926
2.52358
1
1
1
1
1
1
1
1
1.00001
1.00013
1.00118
1.01038
1.08243
1.41979
2.57983
2.69277
2.47382
2.45436
2.5054
2.50212
2.508
2.51768
2.51759
2.51405
2.50819
1
1
1
1
1
1
1
1
1.00001
1.00011
1.00099
1.00872
1.07019
1.37187
2.33665
2.71562
2.40237
2.40334
2.46332
2.47335
2.48606
2.49977
2.49905
2.49492
2.48669
1
1
1
1
1
1
1
1
1.00001
1.00008
1.00075
1.00646
1.05393
1.30941
2.0111
2.76547
2.29218
2.30303
2.38288
2.42145
2.45578
2.47672
2.47817
2.47069
2.46165
1
1
1
1
1
1
1
1
1.00001
1.00006
1.00055
1.00473
1.0418
1.25827
1.89901
2.91109
2.29262
2.25392
2.29367
2.34512
2.40338
2.44373
2.45042
2.44542
2.41694
1
1
1
1
1
1
1
1
1
1.00004
1.00038
1.00339
1.0315
1.20928
1.78204
3.08391
2.38934
2.27483
2.2935
2.29895
2.32939
2.39456
2.40498
2.40906
2.35319
1
1
1
1
1
1
1
1
1
1.00003
1.00029
1.00263
1.02407
1.16981
1.67629
3.07752
2.49491
2.33929
2.31935
2.27841
2.29044
2.33284
2.35335
2.35892
2.21
1
1
1
1
1
1
1
1
1
1.00002
1.00022
1.00195
1.01838
1.13543
1.56401
2.94897
2.49294
2.43463
2.38162
2.30741
2.25708
2.27213
2.27192
2.23257
1.98224
1
1
1
1
1
1
1
1
1
1.00002
1.00015
1.00131
1.01209
1.09507
1.45785
2.757
2.56711
2.40373
2.36938
2.32724
2.26661
2.20953
2.21014
2.1841
1.85787
1
1
1
1
1
1
1
1
1
1.00001
1.00008
1.0008
1.00691
1.05788
1.35415
2.44531
2.64602
2.36147
2.32201
2.32271
2.29398
2.23046
2.14793
2.12873
1.85726
1
1
1
1
1
1
1
1
1
1.00001
1.00006
1.00053
1.00448
1.03906
1.24666
1.89962
2.82674
2.2836
2.2853
2.29888
2.28158
2.23113
2.14736
2.08359
1.85804
1
1
1
1
1
1
1
1
1
1
1.00003
1.00028
1.00243
1.02506
1.17745
1.69429
2.92428
2.29473
2.25345
2.26596
2.25939
2.22041
2.14955
2.07006
1.88275
1
1
1
1
1
1
1
1
1
1
1.00002
1.00019
1.00168
1.0155
1.11847
1.53037
2.86211
2.35924
2.24106
2.21606
2.21916
2.19976
2.1512
2.07663
1.9285
1
1
1
1
1
1
1
1
1
1
1.00001
1.00012
1.00103
1.00913
1.07208
1.38235
2.64582
2.51571
2.22067
2.1458
2.15888
2.16769
2.14212
2.08217
1.97564
1
1
1
1
1
1
1
1
1
1
1.00001
1.00005
1.00045
1.00399
1.03538
1.23416
1.93241
2.79627
2.24379
2.1468
2.14552
2.14198
2.12161
2.07501
1.99587
1
1
1
1
1
1
1
1
1
1
1
1.00003
1.00027
1.00237
1.0211
1.15246
1.62077
2.79687
2.2778
2.17623
2.11236
2.10892
2.09368
2.05881
1.99612
1
1
1
1
1
1
1
1
1
1
1
1.00002
1.00014
1.00124
1.01061
1.08242
1.42167
2.66744
2.43554
2.1543
2.05255
2.05338
2.05125
2.03381
1.99021
1
1
1
1
1
1
1
1
1
1
1
1.00001
1.00005
1.00049
1.00421
1.03702
1.24355
1.98689
2.71094
2.19345
2.086
2.04552
2.02984
2.00886
1.97549
1
1
1
1
1
1
1
1
1
1
1
1
1.00003
1.00028
1.00236
1.01972
1.13975
1.59695
2.70316
2.27164
2.12783
2.03462
2.00415
1.98176
1.95403
1
1
1
1
1
1
1
1
1
1
1
1
1.00001
1.00009
1.00086
1.00737
1.06268
1.36954
2.54085
2.44553
2.1203
2.03218
1.99344
1.96459
1.93502
1
1
1
1
1
1
1
1
1
1
1
1
1.00001
1.00005
1.00042
1.0034
1.02764
1.18309
1.81291
2.7025
2.1781
2.07881
1.98284
1.95144
1.91893
1
1
1
1
1
1
1
1
1
1
1
1
1
1.00002
1.00013
1.00118
1.01006
1.08215
1.45925
2.57479
2.35789
2.06929
1.98872
1.95208
1.91741
1
1
1
1
1
1
1
1
1
1
1
1
1
1.00001
1.00006
1.00052
1.00404
1.03246
1.21121
1.91092
2.64712
2.13
2.04364
1.95184
1.91923
1
1
1
1
1
1
1
1
1
1
1
1
1
1
1.00002
1.00014
1.00132
1.0117
1.0936
1.50363
2.55394
2.31302
2.03611
1.95747
1.92061
1
1
1
1
1
1
1
1
1
1
1
1
1
1
1.00001
1.00007
1.00057
1.00431
1.03462
1.22519
1.98485
2.58191
2.10225
2.00758
1.92203
1
1
1
1
1
1
1
1
1
1
1
1
1
1
1
1.00006
1.00005
1.00099
1.01054
1.08762
1.48809
2.54091
2.31573
2.0248
1.94209
1
1
1
1
1
1
1
1
1
1
1
1
1
1
1
1.00001
1.00007
1.00061
1.00467
1.03673
1.24701
2.14
2.56138
2.11934
2.00236
1
1
1
1
1
1
1
1
1
1
1
1
1
1
1
1
1.00002
1.00013
1.00111
1.00894
1.07263
1.373
2.38568
2.24889
1.94667
1
1
1
1
1
1
1
1
1
1
1
1
1
1
1
1
1.00001
1.00005
1.00054
1.00621
1.00518
1.08735
1.81615
2.5743
2.12548
1
1
1
1
1
1
1
1
1
1
1
1
1
1
1
1
1
1.00001
1.00011
1.00094
1.00698
1.05375
1.32716
2.38091
2.34322
1
1
1
1
1
1
1
1
1
1
1
1
1
1
1
1
1
1
1.00004
1.00025
1.00182
1.01101
1.09206
1.64126
2.53667
1
1
1
1
1
1
1
1
1
1
1
1
1
1
1
1
1
1
1.00001
1.00011
1.00083
1.00601
1.04566
1.2826
2.25279
1
1
1
1
1
1
1
1
1
1
1
1
1
1
1
1
1
1
1
1.00002
1.00016
1.00116
1.00816
1.07198
1.39315
1
1
1
1
1
1
1
1
1
1
1
1
1
1
1
1
1
1
1
1.00002
1.00015
1.00017
1.00273
1.00243
1.07179
1
1
1
1
1
1
1
1
1
1
1
1
1
1
1
1
1
1
1
1
1.00002
1.00011
1.00078
1.00578
1.04336
1
1
1
1
1
1
1
1
1
1
1
1
1
1
1
1
1
1
1
1
1.00001
1.00003
1.00017
1.00114
1.00723
1
1
1
1
1
1
1
1
1
1
1
1
1
1
1
1
1
1
1
1
0.999999
1
1.00006
1.00049
1.00535
1
1
1
1
1
1
1
1
1
1
1
1
1
1
1
1
1
1
1
1
1
1
1.00001
1.0001
1.00072
1
1
1
1
1
1
1
1
1
1
1
1
1
1
1
1
1
1
1
1
1
1
1
1.00003
1.00022
1
1
1
1
1
1
1
1
1
1
1
1
1
1
1
1
1
1
1
1
1
1
1
1.00002
1.00004
1
1
1
1
1
1
1
1
1
1
1
1
1
1
1
1
1
1
1
1
1
1
1
1
1.00002
1
1
1
1
1
1
1
1
1
1
1
1
1
1
1
1
1
1
1
1
1
1
1
1
1.00001
1
1
1
1
1
1
1
1
1
1
1
1
1
1
1
1
1
1
1
1
1
1
1
1
1.00001
1
1
1
1
1
1
1
1
1
1
1
1
1
1
1
1
1
1
1
1
1
1
1
1
1.00001
1
1
1
1
1
1
1
1
1
1
1
1
1
1
1
1
1
1
1
1
1
1
1
1
1.00001
1
1
1
1
1
1
1
1
1
1
1
1
1
1
1
1
1
1
1
1
1
1
1
1
1.00001
1
1
1
1
1
1
1
1
1
1
1
1
1
1
1
1
1
1
1
1
1
1
1
1
1.00001
2.22853
2.49581
2.47746
2.48546
2.49316
2.57169
2.59864
2.57712
2.44858
2.38528
2.36765
2.36631
2.41308
2.3011
2.23398
2.21072
2.20802
2.20715
2.20469
2.20243
2.20064
2.19903
2.1919
2.18932
2.18969
2.19046
2.18989
2.19192
2.19022
2.19683
2.19989
2.21665
2.23716
2.27231
2.30584
2.3273
2.34206
2.3736
2.41635
2.44894
2.47293
2.48993
2.53416
2.55986
2.5846
2.61079
2.62378
2.63042
2.63422
2.6412
2.64482
2.64796
2.65096
2.64641
2.64069
2.63316
2.6236
2.61368
2.60249
2.5912
2.57931
2.5668
2.55425
2.54186
2.52902
2.51619
2.50306
2.48971
2.47605
2.46234
2.44865
2.43479
2.42083
2.40661
2.39211
2.3782
2.36465
2.35089
2.33787
2.32524
2.31326
2.30085
2.29031
2.28033
2.26947
2.25777
2.24871
2.24104
2.23319
2.22563
2.21793
2.21004
2.2013
2.19093
2.17942
2.16605
2.15175
2.13516
2.11808
2.08907
2.22971
2.4693
2.46142
2.51972
2.50842
2.64538
2.73451
2.76552
2.67545
2.63803
2.62992
2.62433
2.62986
2.54876
2.49658
2.47505
2.47121
2.46876
2.46641
2.46165
2.45798
2.45834
2.44607
2.42882
2.42171
2.41727
2.41215
2.41153
2.4089
2.41545
2.42808
2.43882
2.46304
2.48359
2.51697
2.53378
2.54258
2.56496
2.58897
2.62008
2.63509
2.64484
2.65305
2.67054
2.70258
2.69571
2.68466
2.68466
2.68866
2.6813
2.66903
2.6566
2.63985
2.62285
2.60981
2.59601
2.58091
2.56696
2.55116
2.53774
2.52478
2.51006
2.49743
2.48748
2.47686
2.46952
2.46367
2.4593
2.45476
2.4508
2.4469
2.44324
2.43968
2.43576
2.43121
2.42616
2.4208
2.41499
2.40868
2.40389
2.39901
2.39409
2.39071
2.3874
2.38333
2.37889
2.37552
2.37294
2.37016
2.36687
2.3625
2.35715
2.3497
2.34001
2.32859
2.31502
2.30205
2.28728
2.27503
2.2549
1.98254
2.16181
2.35704
2.46881
2.47454
2.48648
2.53968
2.64641
2.63923
2.61835
2.63693
2.70571
2.74489
2.82444
2.67553
2.63742
2.62476
2.62587
2.61592
2.60461
2.59545
2.58777
2.58246
2.5782
2.5776
2.5777
2.57614
2.57612
2.56388
2.56676
2.56432
2.56759
2.59748
2.61915
2.63328
2.6434
2.64845
2.66865
2.70261
2.70799
2.7039
2.71151
2.69271
2.67689
2.65676
2.62828
2.59442
2.56665
2.53644
2.50661
2.48373
2.45858
2.43832
2.41814
2.4041
2.39128
2.37704
2.36404
2.3491
2.33513
2.32221
2.30788
2.29355
2.28327
2.27305
2.26297
2.25408
2.24646
2.23919
2.23241
2.22555
2.22152
2.2176
2.21483
2.21188
2.20934
2.20623
2.20441
2.20272
2.20102
2.19945
2.198
2.19859
2.20084
2.20392
2.20804
2.21378
2.22141
2.23077
2.24141
2.25271
2.26444
2.27355
2.28081
2.28436
2.28365
2.28209
2.27753
2.27098
2.25774
1.87224
1.94505
2.09455
2.29136
2.39234
2.38597
2.37459
2.42165
2.47839
2.48171
2.48417
2.52911
2.5844
2.72708
2.82449
2.87307
2.85548
2.71918
2.61462
2.66474
2.68362
2.68346
2.67914
2.64432
2.63143
2.6235
2.61879
2.62276
2.61806
2.62733
2.63975
2.64751
2.65642
2.71323
2.70612
2.69262
2.67619
2.66868
2.65534
2.60908
2.55791
2.51378
2.46911
2.43629
2.41742
2.38902
2.35979
2.3384
2.31184
2.29754
2.28147
2.26932
2.25704
2.24053
2.22793
2.21804
2.20683
2.19596
2.18396
2.17498
2.16663
2.15706
2.14548
2.13704
2.13011
2.12331
2.11674
2.11049
2.10431
2.09796
2.09317
2.08787
2.08329
2.07909
2.07619
2.07241
2.07171
2.07058
2.06951
2.06824
2.06803
2.06784
2.06692
2.06723
2.06887
2.07148
2.07568
2.0813
2.08857
2.09803
2.10972
2.12349
2.13871
2.15316
2.16766
2.17766
2.18906
2.19439
2.19437
2.19095
1.81696
1.84466
1.92224
2.06207
2.22337
2.2598
2.22006
2.25681
2.30009
2.35163
2.36051
2.36287
2.36982
2.41332
2.52736
2.67717
2.76455
2.79008
2.77254
2.74631
2.705
2.67303
2.67096
2.67323
2.67848
2.67342
2.63975
2.61356
2.63725
2.6568
2.66824
2.69174
2.67917
2.65155
2.61119
2.55175
2.48369
2.4435
2.40117
2.36665
2.34136
2.30795
2.27422
2.25192
2.23052
2.20752
2.18821
2.16608
2.14855
2.14346
2.13826
2.12967
2.12112
2.11216
2.10054
2.09206
2.08616
2.07938
2.07169
2.063
2.05516
2.04659
2.03605
2.03019
2.02548
2.01987
2.01355
2.00673
2.0017
1.99712
1.99284
1.98782
1.98346
1.9797
1.97566
1.97401
1.97245
1.97138
1.97079
1.96955
1.96815
1.96937
1.9708
1.97078
1.97165
1.97351
1.97729
1.98279
1.98957
1.99755
2.00693
2.01818
2.03104
2.04543
2.05838
2.06747
2.07804
2.08671
2.08862
2.09075
1.82252
1.7858
1.81232
1.89202
1.99508
2.09789
2.09964
2.12789
2.18744
2.23123
2.26969
2.26482
2.21772
2.22157
2.26451
2.34134
2.43929
2.53904
2.60599
2.65746
2.66171
2.65096
2.63286
2.63181
2.62909
2.63232
2.64083
2.63905
2.64427
2.63157
2.60423
2.57236
2.53159
2.47944
2.42925
2.36745
2.3102
2.2606
2.19473
2.17711
2.15611
2.12367
2.1014
2.07621
2.06523
2.06331
2.05899
2.04695
2.03613
2.03436
2.03101
2.02274
2.01835
2.01336
2.00625
2.00127
1.99511
1.98755
1.98477
1.98004
1.97187
1.96524
1.95647
1.95061
1.94622
1.94085
1.93463
1.92812
1.92315
1.92013
1.91676
1.91286
1.90863
1.90412
1.90098
1.89843
1.89519
1.89429
1.89369
1.89269
1.89154
1.89169
1.8936
1.89594
1.89697
1.89841
1.90127
1.90601
1.91251
1.92033
1.92918
1.93926
1.9509
1.96427
1.97971
1.98877
1.99941
2.00528
2.00674
2.00948
1.8509
1.78985
1.78046
1.80615
1.83882
1.88792
1.94604
1.96774
2.01757
2.07627
2.141
2.15876
2.13668
2.13756
2.16081
2.19797
2.23861
2.28256
2.3353
2.39438
2.45789
2.50716
2.52374
2.54352
2.54822
2.55781
2.57204
2.56337
2.54283
2.51499
2.47872
2.42055
2.34717
2.26703
2.21528
2.16
2.1143
2.06268
2.00791
2.007
1.99754
1.98116
1.97085
1.9595
1.9621
1.95735
1.9575
1.94905
1.94827
1.94796
1.94575
1.94012
1.93905
1.93682
1.93381
1.92913
1.92572
1.92211
1.91781
1.9141
1.90841
1.90372
1.89973
1.89393
1.88926
1.88311
1.87626
1.87266
1.86948
1.86567
1.86097
1.85581
1.85217
1.84883
1.84552
1.84146
1.83867
1.83752
1.83614
1.83489
1.83458
1.83373
1.83477
1.83725
1.83959
1.84099
1.8434
1.8473
1.85308
1.86063
1.86951
1.87954
1.89079
1.90371
1.9191
1.93328
1.942
1.94649
1.94804
1.94931
1.89812
1.8088
1.78299
1.7718
1.77715
1.79086
1.80053
1.81526
1.8423
1.89509
1.9623
2.01963
2.02098
2.01762
2.03947
2.07259
2.11135
2.14639
2.17841
2.20957
2.24387
2.29262
2.33547
2.38153
2.41149
2.45427
2.45912
2.46854
2.44301
2.40084
2.33383
2.23756
2.14568
2.06875
2.01329
1.9567
1.92603
1.892
1.86179
1.86441
1.85746
1.85347
1.86112
1.8701
1.88412
1.88265
1.88104
1.87314
1.87475
1.87277
1.8753
1.88139
1.88835
1.88537
1.88109
1.87744
1.87629
1.87627
1.87475
1.87191
1.86855
1.86532
1.86228
1.85636
1.85062
1.84663
1.84173
1.83848
1.83438
1.82935
1.82415
1.82055
1.81708
1.81358
1.80927
1.80472
1.80127
1.7995
1.79759
1.79648
1.79477
1.79485
1.79501
1.79624
1.79832
1.8
1.80236
1.80574
1.81058
1.81724
1.82575
1.83597
1.84763
1.86096
1.87579
1.89422
1.90443
1.90803
1.90698
1.90669
1.92321
1.84424
1.79619
1.77311
1.77011
1.761
1.74735
1.73462
1.74437
1.76399
1.79918
1.83648
1.87291
1.87782
1.90194
1.93708
1.97756
2.0156
2.04717
2.07776
2.10472
2.13354
2.1645
2.20144
2.24229
2.31243
2.34594
2.39737
2.35387
2.28632
2.17805
2.04598
1.97845
1.91617
1.86116
1.81422
1.78563
1.75571
1.74047
1.73487
1.72533
1.7286
1.74203
1.75534
1.77977
1.8066
1.83624
1.84818
1.83729
1.82732
1.82844
1.83123
1.84151
1.85407
1.85854
1.85515
1.84924
1.84747
1.84647
1.84514
1.84356
1.83976
1.83784
1.83444
1.82835
1.82532
1.82138
1.81808
1.81498
1.81131
1.80599
1.80133
1.79693
1.79227
1.78751
1.7843
1.78021
1.77859
1.77675
1.77434
1.77276
1.77198
1.77073
1.77123
1.77221
1.77346
1.77543
1.77871
1.78342
1.78967
1.79753
1.80715
1.8186
1.83197
1.8474
1.86736
1.88299
1.88292
1.8816
1.87945
1.93277
1.87915
1.82392
1.78617
1.7756
1.75878
1.73542
1.70577
1.68892
1.69049
1.69527
1.70717
1.72061
1.73303
1.75259
1.78411
1.82561
1.86657
1.9075
1.93884
1.96906
1.99821
2.03046
2.07684
2.13035
2.24123
2.36873
2.32626
2.26716
2.16923
2.02464
1.90291
1.84469
1.79238
1.75315
1.72333
1.69662
1.66968
1.65348
1.6397
1.62986
1.63481
1.64213
1.65062
1.67467
1.70058
1.73536
1.78537
1.83968
1.83539
1.8208
1.81255
1.81194
1.81585
1.82624
1.83976
1.83748
1.83275
1.83117
1.82814
1.82739
1.82632
1.82519
1.82277
1.81587
1.8144
1.81253
1.80951
1.80571
1.80199
1.79669
1.79036
1.78737
1.78411
1.78081
1.77609
1.7731
1.77094
1.76847
1.76651
1.76418
1.76212
1.76093
1.76145
1.76275
1.76364
1.76474
1.76712
1.77098
1.77657
1.78381
1.79276
1.80366
1.817
1.83306
1.85395
1.87277
1.872
1.87014
1.86568
1.92954
1.88527
1.85064
1.81098
1.79087
1.76684
1.74041
1.71055
1.68986
1.66655
1.65543
1.64971
1.64153
1.63467
1.63683
1.64886
1.67115
1.70334
1.74097
1.77712
1.81224
1.85019
1.89583
1.95735
2.06276
2.31115
2.29013
2.22701
2.14337
2.03462
1.89118
1.82553
1.77039
1.73051
1.69069
1.66132
1.6348
1.61389
1.60059
1.58675
1.57526
1.57542
1.5739
1.57879
1.59266
1.61084
1.64625
1.6909
1.73198
1.78522
1.85191
1.83043
1.79749
1.79804
1.79964
1.80767
1.81563
1.82454
1.82165
1.81996
1.81745
1.81406
1.81342
1.81267
1.81047
1.8051
1.80501
1.8033
1.79899
1.79177
1.78673
1.7829
1.7802
1.77706
1.77287
1.76796
1.76668
1.76459
1.76149
1.76045
1.75928
1.7571
1.75501
1.755
1.7565
1.75773
1.75854
1.7603
1.76335
1.76835
1.77551
1.78478
1.7963
1.81034
1.82749
1.84942
1.87388
1.87288
1.86894
1.86231
1.91815
1.88267
1.85092
1.82823
1.80938
1.78301
1.75465
1.72604
1.69792
1.6698
1.64953
1.63373
1.61696
1.60067
1.58188
1.57627
1.58158
1.59683
1.61851
1.64518
1.67214
1.70577
1.755
1.83551
1.98718
2.27456
2.15824
2.09883
2.01773
1.91432
1.82539
1.77627
1.72892
1.6917
1.65409
1.62662
1.59772
1.58037
1.56586
1.55748
1.54846
1.54043
1.53415
1.53735
1.5445
1.55295
1.57526
1.59699
1.62333
1.67432
1.73528
1.81406
1.83288
1.80958
1.79348
1.7838
1.78594
1.79501
1.80718
1.80986
1.80889
1.80788
1.80348
1.80192
1.80046
1.79872
1.79518
1.79164
1.78782
1.7814
1.77829
1.77518
1.7716
1.76711
1.76209
1.76088
1.75976
1.75736
1.75485
1.753
1.75195
1.75044
1.74843
1.74807
1.74882
1.75113
1.75226
1.75421
1.757
1.76107
1.76724
1.7764
1.78901
1.80507
1.82495
1.84953
1.88004
1.87808
1.87293
1.86475
1.90216
1.87509
1.84734
1.82934
1.81471
1.79672
1.77567
1.74899
1.71566
1.68528
1.65788
1.6376
1.61635
1.59587
1.57024
1.54793
1.54355
1.54672
1.55603
1.57574
1.59688
1.63101
1.68928
1.80139
2.00994
2.14401
2.04771
2.00698
1.93616
1.85051
1.80909
1.76581
1.72468
1.68573
1.651
1.61908
1.59146
1.57214
1.55288
1.53689
1.52265
1.52296
1.52124
1.52107
1.51986
1.51791
1.5225
1.53153
1.54532
1.57833
1.61707
1.67502
1.75186
1.85186
1.82755
1.78653
1.77479
1.77489
1.77617
1.78517
1.79332
1.79211
1.78995
1.78455
1.78412
1.7841
1.78279
1.78001
1.77591
1.77105
1.76566
1.76211
1.7588
1.75502
1.75249
1.75218
1.75003
1.74593
1.74477
1.74342
1.74204
1.74077
1.73918
1.73966
1.74059
1.74203
1.74365
1.74609
1.74963
1.75425
1.76037
1.76879
1.78086
1.79781
1.82044
1.84913
1.88843
1.88638
1.88056
1.8703
1.88431
1.86248
1.83955
1.82551
1.812
1.80012
1.78465
1.76371
1.73653
1.70719
1.6748
1.64897
1.62371
1.59864
1.57354
1.5452
1.53336
1.52374
1.52627
1.54281
1.56374
1.61125
1.70346
1.86538
2.13241
2.03563
1.99078
1.94159
1.879
1.84063
1.80176
1.7618
1.72279
1.68761
1.65995
1.63099
1.60688
1.58573
1.56518
1.54325
1.5347
1.52324
1.51222
1.5098
1.50282
1.50066
1.4995
1.50216
1.50685
1.51838
1.53341
1.56856
1.61941
1.68176
1.76402
1.83024
1.80018
1.77798
1.75251
1.7574
1.76356
1.77701
1.77585
1.77408
1.77164
1.76708
1.76249
1.7621
1.76106
1.75866
1.75561
1.75151
1.74658
1.7427
1.74047
1.73775
1.73397
1.73231
1.73085
1.72848
1.72702
1.7274
1.72715
1.72735
1.72932
1.73178
1.73318
1.73561
1.73938
1.74469
1.75163
1.76059
1.77284
1.79015
1.8143
1.8462
1.89609
1.89592
1.88883
1.8774
1.87855
1.85331
1.82855
1.81725
1.80456
1.79637
1.78429
1.76722
1.74756
1.7248
1.69633
1.66725
1.63866
1.60871
1.58224
1.55494
1.5333
1.51509
1.52304
1.5408
1.57104
1.64612
1.78357
2.05571
2.03723
1.96768
1.9247
1.89819
1.87053
1.84136
1.80617
1.76609
1.73436
1.70413
1.67729
1.65036
1.6289
1.60703
1.58456
1.57132
1.55744
1.53929
1.52589
1.51176
1.49483
1.49037
1.492
1.495
1.49103
1.48528
1.48546
1.49718
1.51716
1.55488
1.61427
1.69288
1.82253
1.81399
1.76716
1.76248
1.74918
1.75348
1.75959
1.76961
1.76729
1.76626
1.76322
1.75639
1.75292
1.75298
1.75192
1.74943
1.74225
1.73868
1.73766
1.73512
1.73109
1.72862
1.72636
1.72375
1.72043
1.71893
1.71977
1.71902
1.71903
1.72093
1.72333
1.72567
1.72879
1.7331
1.73941
1.74868
1.76198
1.78081
1.80709
1.8426
1.90246
1.90316
1.89403
1.88211
1.87964
1.85131
1.8219
1.80734
1.79294
1.78605
1.77803
1.76568
1.74948
1.73014
1.70951
1.68788
1.66079
1.62953
1.59819
1.56793
1.53132
1.52784
1.54311
1.5579
1.60685
1.72327
1.95477
1.99945
1.92888
1.9184
1.90425
1.88673
1.86411
1.83747
1.80722
1.77566
1.74454
1.71796
1.69099
1.66778
1.64764
1.62574
1.60942
1.59458
1.57753
1.55824
1.54117
1.52373
1.51763
1.50889
1.4955
1.48461
1.47235
1.46895
1.46262
1.46396
1.46698
1.48223
1.51232
1.56236
1.63219
1.72142
1.84211
1.81176
1.77784
1.73627
1.73851
1.74192
1.7497
1.75535
1.75334
1.75179
1.74723
1.74104
1.73893
1.73742
1.73548
1.73392
1.73198
1.7295
1.72718
1.72399
1.71971
1.71884
1.71702
1.71413
1.71213
1.71314
1.71303
1.71294
1.71434
1.71613
1.71926
1.72338
1.72884
1.73688
1.74956
1.76934
1.79858
1.83865
1.9106
1.91248
1.89247
1.88535
1.88194
1.84925
1.8193
1.80253
1.78466
1.7716
1.7661
1.75963
1.74698
1.72946
1.71167
1.69317
1.67285
1.64934
1.62214
1.59134
1.54998
1.55207
1.57226
1.61271
1.69949
1.84394
1.97317
1.9214
1.89282
1.8902
1.88483
1.87544
1.86036
1.84023
1.81687
1.79131
1.76426
1.73938
1.71429
1.69291
1.67038
1.65163
1.63253
1.61429
1.59487
1.57513
1.56146
1.54685
1.53189
1.51495
1.49743
1.48125
1.46366
1.459
1.45285
1.45364
1.44933
1.45104
1.45859
1.4776
1.51552
1.57291
1.65183
1.76688
1.79739
1.76379
1.7541
1.72559
1.7318
1.73461
1.74258
1.74173
1.7407
1.7384
1.73007
1.72728
1.72769
1.72654
1.72422
1.72158
1.71939
1.71719
1.71379
1.70896
1.70922
1.70878
1.70685
1.70476
1.70558
1.70665
1.70738
1.70805
1.70997
1.71364
1.71945
1.72809
1.74121
1.76165
1.7933
1.83898
1.9253
1.92168
1.89649
1.88989
1.88494
1.84628
1.81585
1.79761
1.78248
1.76276
1.75355
1.74877
1.73946
1.72654
1.71128
1.69293
1.67634
1.65826
1.63657
1.61373
1.59158
1.59906
1.62121
1.70497
1.83998
1.96386
1.91266
1.88602
1.88074
1.88051
1.879
1.87368
1.86297
1.84704
1.82749
1.80582
1.78302
1.7601
1.73666
1.71479
1.69236
1.67282
1.65172
1.63111
1.60959
1.59609
1.57885
1.55985
1.5402
1.52213
1.50861
1.4964
1.485
1.47247
1.46098
1.44832
1.44174
1.43519
1.43487
1.43981
1.45114
1.4702
1.51047
1.58007
1.65946
1.80303
1.79357
1.75892
1.73263
1.71257
1.71806
1.72268
1.72973
1.72764
1.72551
1.72052
1.71577
1.71484
1.7155
1.71426
1.71181
1.70912
1.70649
1.7024
1.69936
1.70036
1.70077
1.6995
1.69773
1.69818
1.70015
1.70122
1.70284
1.70561
1.71049
1.71888
1.73295
1.75583
1.79209
1.84622
1.94545
1.92789
1.90595
1.89912
1.89106
1.85565
1.81687
1.792
1.77877
1.75925
1.7476
1.74147
1.73135
1.72
1.70802
1.69395
1.67903
1.66208
1.63559
1.63486
1.64478
1.65891
1.72385
1.84338
1.97439
1.91255
1.89678
1.87225
1.87637
1.87735
1.87602
1.87166
1.86346
1.85145
1.83598
1.81759
1.79726
1.77563
1.7528
1.73131
1.71039
1.68862
1.66811
1.64917
1.62998
1.61224
1.59251
1.57227
1.55578
1.54113
1.52393
1.50975
1.49707
1.48336
1.46918
1.45516
1.4392
1.42857
1.42896
1.42402
1.41694
1.42095
1.43268
1.45992
1.51383
1.60334
1.69835
1.796
1.75806
1.73388
1.6953
1.69838
1.70644
1.71038
1.71105
1.71059
1.70863
1.70597
1.70369
1.70075
1.70055
1.6993
1.69747
1.69556
1.69267
1.6905
1.69121
1.69242
1.69168
1.69117
1.69196
1.69399
1.69554
1.69837
1.70281
1.71062
1.72499
1.75055
1.79263
1.85937
1.96796
1.94241
1.90396
1.90699
1.89134
1.85456
1.81765
1.78273
1.76835
1.75171
1.73931
1.73608
1.72849
1.71743
1.70398
1.69508
1.68198
1.66229
1.64958
1.66068
1.67955
1.74655
1.86845
1.98408
1.93427
1.91635
1.87254
1.87546
1.87992
1.87827
1.87565
1.87126
1.86438
1.85441
1.84123
1.82488
1.8057
1.78519
1.76269
1.7417
1.72024
1.69697
1.67938
1.66116
1.64154
1.62196
1.59982
1.58615
1.57008
1.55316
1.53463
1.51948
1.50417
1.48997
1.47535
1.46238
1.45153
1.43839
1.4247
1.4084
1.40636
1.40392
1.39773
1.40418
1.43038
1.46808
1.5316
1.6189
1.76606
1.76855
1.72496
1.71195
1.68561
1.69074
1.6979
1.70157
1.70133
1.70093
1.69947
1.69573
1.69125
1.68771
1.68678
1.68603
1.68479
1.68295
1.68228
1.68269
1.68382
1.68387
1.68434
1.68537
1.68713
1.68962
1.69399
1.70193
1.71704
1.74559
1.79449
1.88003
1.99322
1.94871
1.91133
1.91403
1.90738
1.85473
1.82073
1.78509
1.76719
1.74986
1.7308
1.72942
1.726
1.71578
1.70154
1.69445
1.68278
1.66801
1.67526
1.69012
1.75171
1.88076
2.02875
1.95463
1.94091
1.88864
1.87847
1.88005
1.87855
1.87488
1.86942
1.86293
1.8555
1.84672
1.83591
1.82305
1.80756
1.79024
1.77097
1.75031
1.72835
1.70612
1.68782
1.66775
1.64892
1.62913
1.61403
1.59641
1.57795
1.56102
1.54605
1.52943
1.51147
1.49413
1.48071
1.4665
1.45645
1.44464
1.43085
1.41576
1.40571
1.39369
1.38984
1.38364
1.38648
1.39433
1.42213
1.48006
1.55852
1.66013
1.79156
1.75214
1.72367
1.68291
1.67588
1.6839
1.68611
1.69076
1.68988
1.68853
1.68559
1.68066
1.67568
1.67413
1.67361
1.67386
1.6738
1.67365
1.67386
1.67439
1.67539
1.67653
1.67785
1.67959
1.68363
1.692
1.70903
1.7423
1.80124
1.92502
2.00765
1.93819
1.92807
1.92423
1.94211
1.86307
1.83425
1.80387
1.78
1.76118
1.73493
1.73042
1.72709
1.7188
1.7054
1.69283
1.68735
1.6919
1.70234
1.75444
1.87974
2.08116
1.9717
1.96384
1.9334
1.88777
1.8811
1.87427
1.86955
1.86571
1.86097
1.85474
1.84768
1.83973
1.83042
1.81976
1.80717
1.79238
1.77573
1.75712
1.73809
1.71833
1.69869
1.67833
1.65954
1.64097
1.624
1.6056
1.58673
1.57001
1.5543
1.53755
1.52069
1.50321
1.48827
1.47447
1.46249
1.45051
1.43811
1.42425
1.41029
1.39603
1.37882
1.36421
1.37141
1.37042
1.37526
1.39723
1.43665
1.50498
1.59492
1.741
1.74361
1.69655
1.68558
1.65853
1.66507
1.67241
1.67515
1.67828
1.6774
1.67546
1.67201
1.66723
1.66415
1.6643
1.66544
1.66533
1.66524
1.66522
1.66507
1.66567
1.66773
1.66908
1.67285
1.68119
1.70055
1.74096
1.81612
1.99139
2.00395
1.94342
1.93157
1.93143
2.00238
1.92301
1.84052
1.8137
1.78286
1.76926
1.74886
1.72757
1.72575
1.71758
1.70077
1.6909
1.70018
1.71615
1.7637
1.87693
2.10798
2.02267
2.00433
1.96876
1.91952
1.90536
1.88839
1.86827
1.85936
1.8565
1.85273
1.8474
1.8406
1.83314
1.82497
1.81589
1.80538
1.79294
1.77874
1.76272
1.74524
1.72675
1.70741
1.68834
1.66879
1.64997
1.63068
1.61351
1.5957
1.57861
1.56215
1.54584
1.52939
1.51188
1.49632
1.48222
1.47055
1.45788
1.44717
1.43627
1.42505
1.41191
1.39336
1.37382
1.36469
1.36543
1.35916
1.36583
1.37874
1.40654
1.45211
1.52068
1.61777
1.75224
1.71649
1.68434
1.65154
1.64942
1.65766
1.65977
1.66303
1.66347
1.66336
1.66064
1.65467
1.65239
1.65311
1.65454
1.6558
1.65564
1.65414
1.65379
1.65677
1.65874
1.6627
1.67194
1.69491
1.74417
1.8422
2.0444
1.99753
1.95042
1.93441
1.93535
2.23172
1.96139
1.87184
1.82412
1.79337
1.76715
1.74604
1.71913
1.71803
1.71712
1.70635
1.70643
1.71923
1.76717
1.87684
2.11438
2.09714
2.04623
1.9588
1.92816
1.92545
1.91384
1.89727
1.87705
1.86101
1.85351
1.84846
1.84264
1.83595
1.82868
1.82117
1.81302
1.80388
1.79314
1.78071
1.76618
1.75025
1.73289
1.71474
1.69598
1.6766
1.65708
1.63887
1.62049
1.60253
1.58565
1.56953
1.55319
1.5365
1.51953
1.50304
1.48682
1.47356
1.46279
1.45189
1.44251
1.43059
1.41582
1.39613
1.38133
1.36884
1.35708
1.35184
1.35654
1.35643
1.35804
1.37401
1.40732
1.46808
1.55583
1.69796
1.71432
1.66953
1.66445
1.64801
1.65279
1.65685
1.65873
1.65859
1.65743
1.65391
1.64697
1.6444
1.64512
1.64703
1.6465
1.64419
1.64174
1.64445
1.64749
1.65239
1.66416
1.69322
1.75609
1.88332
2.07424
1.98289
1.96193
1.93291
1.93803
2.44465
2.08626
1.95513
1.85252
1.79866
1.76991
1.73935
1.71821
1.69573
1.70704
1.71821
1.73021
1.77231
1.87629
2.09398
2.1358
2.07672
1.98749
1.95054
1.94822
1.93669
1.92077
1.90115
1.88346
1.86696
1.85488
1.84635
1.83975
1.83296
1.8259
1.81821
1.81
1.801
1.79077
1.77907
1.7658
1.75103
1.73497
1.71785
1.69993
1.68141
1.66235
1.64319
1.62462
1.60645
1.58986
1.57397
1.55782
1.54156
1.52492
1.50862
1.49168
1.47854
1.46631
1.45402
1.4417
1.42874
1.41606
1.40326
1.38765
1.37003
1.36332
1.35617
1.34932
1.34406
1.34185
1.34704
1.35687
1.37975
1.42009
1.49662
1.5981
1.73159
1.6962
1.65798
1.64113
1.63967
1.64388
1.64533
1.64507
1.64405
1.64195
1.63844
1.63747
1.6377
1.63711
1.63455
1.6311
1.63286
1.63538
1.64142
1.65833
1.69794
1.78334
1.98784
2.06085
1.97539
1.96172
1.92508
1.93626
2.27428
2.16748
1.91583
1.8719
1.81173
1.77695
1.74911
1.72097
1.70279
1.71451
1.73663
1.78416
1.88586
2.08037
2.17335
2.10613
2.02731
1.98175
1.97394
1.96031
1.94484
1.92821
1.91123
1.89397
1.87651
1.86143
1.84991
1.8398
1.83063
1.82266
1.81444
1.80586
1.79695
1.78728
1.77657
1.76448
1.75097
1.73611
1.72012
1.70332
1.68578
1.66775
1.64909
1.63113
1.61313
1.59639
1.57989
1.56372
1.54728
1.53091
1.51423
1.49825
1.48614
1.47337
1.46095
1.4467
1.43493
1.42445
1.41136
1.39362
1.37488
1.36949
1.36309
1.35637
1.35024
1.34172
1.34077
1.33669
1.3396
1.34984
1.38082
1.44807
1.55354
1.73785
1.72146
1.66017
1.65372
1.63483
1.63648
1.63881
1.63821
1.63689
1.63497
1.63233
1.62784
1.62527
1.62173
1.61878
1.62029
1.62237
1.63063
1.65598
1.71411
1.83272
2.0786
2.02592
1.96719
1.95399
1.92026
1.93362
1.70401
2.4698
2.14976
1.90101
1.85464
1.79719
1.77559
1.74315
1.73613
1.74413
1.78263
1.89165
2.0908
2.20493
2.12842
2.06713
2.00575
1.99765
1.98595
1.97086
1.95393
1.93526
1.91602
1.89977
1.88313
1.86534
1.85059
1.83866
1.82766
1.81831
1.81
1.80164
1.79282
1.78337
1.77294
1.76139
1.74866
1.73484
1.72
1.70433
1.68796
1.67096
1.65341
1.63535
1.61764
1.60025
1.58324
1.56706
1.55077
1.53447
1.51754
1.50252
1.49007
1.47828
1.46596
1.45294
1.4397
1.42549
1.41046
1.39286
1.38261
1.3775
1.3714
1.36421
1.35615
1.34798
1.33968
1.32997
1.33015
1.32544
1.33564
1.36809
1.428
1.52153
1.67006
1.72756
1.68893
1.66631
1.64128
1.63265
1.63586
1.63478
1.63245
1.62894
1.62429
1.61859
1.61131
1.60828
1.61033
1.61327
1.62816
1.6671
1.75291
1.92377
2.08875
1.99232
1.97284
1.94908
1.9143
1.92808
1.28937
2.29793
2.36116
2.06007
1.92361
1.82814
1.76668
1.75838
1.77177
1.80223
1.89965
2.08466
2.23176
2.14992
2.08955
2.02527
2.01794
2.00878
1.99575
1.97958
1.96015
1.9378
1.92183
1.90543
1.88866
1.87108
1.85304
1.83861
1.8262
1.81518
1.80503
1.79619
1.78717
1.7777
1.76765
1.75683
1.7452
1.73274
1.71945
1.70524
1.6901
1.67419
1.65761
1.64068
1.62372
1.60704
1.59073
1.57441
1.55809
1.54174
1.52562
1.51024
1.49797
1.48708
1.4752
1.46357
1.45101
1.43712
1.42182
1.40673
1.39768
1.39196
1.38594
1.3787
1.37095
1.36347
1.3573
1.35094
1.34089
1.33518
1.33674
1.3444
1.36763
1.41017
1.49165
1.59668
1.7644
1.72985
1.66822
1.65391
1.63018
1.63133
1.63092
1.62966
1.62615
1.62058
1.61254
1.60855
1.61016
1.61544
1.63998
1.70162
1.82384
2.07518
2.04627
1.97444
1.96112
1.93909
1.91269
1.92599
1.06971
1.40122
2.20648
2.1237
1.87938
1.83802
1.77271
1.78241
1.819
1.92666
2.11299
2.268
2.18125
2.11589
2.04639
2.04196
2.03676
2.02676
2.0122
1.99269
1.97001
1.95004
1.93295
1.91532
1.89748
1.87943
1.86035
1.84314
1.82868
1.81514
1.80265
1.79206
1.78216
1.77204
1.76152
1.75054
1.73911
1.72725
1.71489
1.70185
1.68801
1.67338
1.65812
1.64243
1.62649
1.61047
1.59433
1.57796
1.56157
1.54528
1.53014
1.51545
1.50375
1.49364
1.48292
1.47157
1.45973
1.44762
1.43482
1.41994
1.40984
1.40459
1.3994
1.39398
1.38844
1.38232
1.37591
1.36934
1.36326
1.3566
1.34597
1.35362
1.36209
1.37299
1.41152
1.48661
1.59337
1.80393
1.77753
1.70849
1.683
1.65263
1.6398
1.63654
1.63219
1.62755
1.62296
1.61831
1.61867
1.63099
1.67521
1.77363
1.96312
2.08638
2.00139
1.98024
1.96448
1.94373
1.91919
1.93105
1.00241
1.06624
1.65241
2.38853
2.11249
1.87109
1.80802
1.83032
1.95186
2.17948
2.313
2.22574
2.13403
2.06595
2.06146
2.06113
2.05446
2.04177
2.02368
2.00246
1.97916
1.96167
1.94379
1.92567
1.90774
1.88976
1.87108
1.85155
1.83384
1.81802
1.80296
1.78905
1.77643
1.76509
1.75414
1.74373
1.73331
1.72255
1.71129
1.69945
1.68681
1.67351
1.65979
1.64585
1.63177
1.61755
1.60317
1.58852
1.57363
1.55844
1.54475
1.53116
1.5201
1.51042
1.50046
1.49033
1.47996
1.46921
1.45761
1.4441
1.43756
1.43482
1.43156
1.42862
1.42509
1.42166
1.4183
1.41496
1.41145
1.40714
1.40578
1.4026
1.41043
1.41243
1.42558
1.45712
1.51669
1.61486
1.81099
1.82188
1.7746
1.71871
1.69512