/*--------------------------------*- C++ -*----------------------------------*\
| =========                 |                                                 |
| \\      /  F ield         | OpenFOAM: The Open Source CFD Toolbox           |
|  \\    /   O peration     | Version:  v2106                                 |
|   \\  /    A nd           | Website:  www.openfoam.com                      |
|    \\/     M anipulation  |                                                 |
\*---------------------------------------------------------------------------*/
FoamFile
{
    version     2.0;
    format      ascii;
    arch        "LSB;label=32;scalar=64";
    class       volVectorField;
    location    "4";
    object      U;
}
// * * * * * * * * * * * * * * * * * * * * * * * * * * * * * * * * * * * * * //

dimensions      [0 1 -1 0 0 0 0];

internalField   nonuniform List<vector> 
5250
(
(3 -9.41335e-15 0)
(3 1.24512e-13 0)
(3 4.89413e-13 0)
(3 7.87106e-12 0)
(3 5.19375e-11 0)
(3 1.15686e-10 0)
(3 2.00098e-09 0)
(3 3.48042e-09 0)
(3.00001 8.35769e-08 0)
(2.99994 4.27135e-07 0)
(3.00058 5.83802e-06 0)
(2.99882 4.36638e-05 0)
(3.03133 0.000471293 0)
(3.01388 0.00302974 0)
(2.43893 0.00793836 0)
(0.658205 0.0298335 0)
(0.541332 0.0168653 0)
(0.542728 0.0197918 0)
(0.488474 0.0222536 0)
(0.414274 0.0197874 0)
(0.35794 0.024374 0)
(0.283653 0.0279963 0)
(0.211632 0.0307674 0)
(0.129998 0.0335981 0)
(0.047669 0.0402348 0)
(3 1.84001e-15 0)
(3 1.33099e-13 0)
(3 -3.60544e-13 0)
(3 8.59463e-12 0)
(3 -8.84033e-12 0)
(3 -8.23109e-09 0)
(3 -1.66698e-08 0)
(3 7.51938e-09 0)
(3.00001 8.3701e-08 0)
(2.99995 1.80469e-06 0)
(3.00056 1.01747e-05 0)
(2.99886 0.000141887 0)
(3.03042 0.000975382 0)
(3.01605 0.00904838 0)
(2.44875 0.0255577 0)
(0.67133 0.0980542 0)
(0.530132 0.0492509 0)
(0.538516 0.0605714 0)
(0.483615 0.0654797 0)
(0.409209 0.0742359 0)
(0.354175 0.0819422 0)
(0.280875 0.0875138 0)
(0.207743 0.0944602 0)
(0.124242 0.10137 0)
(0.0436927 0.107432 0)
(3 -2.8245e-15 0)
(3 1.3618e-13 0)
(3 1.07698e-12 0)
(3 1.26817e-11 0)
(3 1.08549e-10 0)
(3 -1.2602e-08 0)
(3 1.14211e-08 0)
(3 -1.27914e-08 0)
(3.00001 5.09277e-07 0)
(2.99993 9.48013e-07 0)
(3.00063 3.1334e-05 0)
(2.99832 0.000159994 0)
(3.0328 0.0023197 0)
(3.02221 0.0162392 0)
(2.47887 0.0450308 0)
(0.722473 0.166248 0)
(0.515678 0.0816788 0)
(0.540585 0.0993895 0)
(0.483514 0.109523 0)
(0.4105 0.112768 0)
(0.354829 0.128776 0)
(0.280546 0.143039 0)
(0.207342 0.157772 0)
(0.125712 0.167821 0)
(0.043224 0.178832 0)
(3 -3.68146e-14 0)
(3 8.97994e-13 0)
(3 3.19948e-12 0)
(3 6.26707e-11 0)
(3 4.07215e-10 0)
(3 5.42264e-09 0)
(3 3.73357e-08 0)
(3 -7.87435e-08 0)
(3.00001 8.9717e-07 0)
(2.99997 -1.46728e-06 0)
(3.00038 5.4016e-05 0)
(2.9997 0.000177338 0)
(3.02265 -0.0160111 0)
(3.02844 0.0250803 0)
(2.51597 0.0654142 0)
(0.788983 0.244045 0)
(0.489836 0.119471 0)
(0.544415 0.143417 0)
(0.486334 0.151526 0)
(0.407934 0.167786 0)
(0.35275 0.188615 0)
(0.280886 0.205051 0)
(0.210076 0.221429 0)
(0.126936 0.237539 0)
(0.0451496 0.24883 0)
(3 -7.60916e-13 0)
(3 9.91212e-13 0)
(3 3.78496e-13 0)
(3 3.02023e-11 0)
(3 8.65032e-10 0)
(3 -2.3998e-09 0)
(3 2.46784e-08 0)
(3 -5.53605e-08 0)
(3 7.69095e-07 0)
(3.00001 3.45846e-08 0)
(3.00011 3.27835e-05 0)
(3.00085 0.00030315 0)
(3.01008 0.000767482 0)
(3.04429 0.0295431 0)
(2.57206 0.0829647 0)
(0.88048 0.328807 0)
(0.450979 0.147306 0)
(0.541553 0.179598 0)
(0.48025 0.199752 0)
(0.411113 0.209817 0)
(0.359357 0.234714 0)
(0.291721 0.256991 0)
(0.2187 0.285773 0)
(0.135539 0.305186 0)
(0.0471902 0.324341 0)
(3 1.52349e-14 0)
(3 2.51288e-13 0)
(3 -1.62578e-13 0)
(3 1.58977e-11 0)
(3 -3.85746e-12 0)
(3 7.93274e-10 0)
(3 8.55311e-09 0)
(3 3.13566e-08 0)
(3 6.11804e-07 0)
(3.00001 3.16294e-06 0)
(3.00008 4.00619e-05 0)
(3.00078 0.000377863 0)
(3.00836 0.00221344 0)
(3.05775 0.0335535 0)
(2.64647 0.104314 0)
(1.02335 0.432979 0)
(0.393673 0.188836 0)
(0.528532 0.221929 0)
(0.46453 0.232683 0)
(0.4049 0.258909 0)
(0.358427 0.288687 0)
(0.293131 0.319708 0)
(0.227578 0.351563 0)
(0.139101 0.383877 0)
(0.0483551 0.403436 0)
(3 7.84095e-14 0)
(3 -1.05651e-13 0)
(3 1.74168e-12 0)
(3 -8.68834e-12 0)
(3 1.42372e-10 0)
(3 2.95801e-11 0)
(3 1.056e-08 0)
(3 -2.20569e-08 0)
(3 8.31963e-07 0)
(3.00001 -4.30181e-06 0)
(3.00004 5.75169e-05 0)
(3.00085 8.54239e-06 0)
(3.00413 0.00384676 0)
(3.06946 0.0326035 0)
(2.74809 0.0949452 0)
(1.27728 0.536715 0)
(0.369526 0.236879 0)
(0.535037 0.255679 0)
(0.464281 0.267573 0)
(0.409576 0.290666 0)
(0.363004 0.331843 0)
(0.316982 0.365828 0)
(0.235755 0.419887 0)
(0.160175 0.456322 0)
(0.0665269 0.491119 0)
(3 -1.87216e-14 0)
(3 6.36237e-14 0)
(3 -3.058e-13 0)
(3 -7.37455e-12 0)
(3 1.42748e-10 0)
(3 2.20709e-10 0)
(3 8.43804e-09 0)
(3 3.21125e-08 0)
(3 7.11566e-07 0)
(3.00001 3.92187e-07 0)
(3.00004 6.35254e-05 0)
(3.00059 -0.00050195 0)
(3.00173 0.00321281 0)
(3.06862 0.0260619 0)
(2.83195 0.0576056 0)
(1.66866 0.619003 0)
(0.389649 0.317522 0)
(0.561018 0.300543 0)
(0.488981 0.303579 0)
(0.405079 0.338189 0)
(0.382484 0.370225 0)
(0.324636 0.427574 0)
(0.253406 0.490253 0)
(0.181542 0.542014 0)
(0.0656697 0.600267 0)
(3 -3.33562e-14 0)
(3 1.14172e-13 0)
(3 -9.20766e-13 0)
(3 3.88981e-12 0)
(3 -5.52849e-11 0)
(3 -1.29854e-10 0)
(3 9.83665e-09 0)
(3 2.33105e-08 0)
(3 5.786e-07 0)
(3.00001 2.78182e-06 0)
(2.99998 3.69964e-05 0)
(3.00073 0.000257095 0)
(2.99979 0.0024351 0)
(3.06301 0.0206403 0)
(2.89367 0.0343762 0)
(2.08815 0.619899 0)
(0.510036 0.422438 0)
(0.614245 0.37207 0)
(0.547773 0.360673 0)
(0.438325 0.37925 0)
(0.429173 0.40284 0)
(0.348949 0.485222 0)
(0.311646 0.549366 0)
(0.229363 0.620706 0)
(0.137998 0.728344 0)
(3 2.18852e-14 0)
(3 -3.41718e-13 0)
(3 -3.57423e-14 0)
(3 2.01175e-11 0)
(3 -1.43557e-10 0)
(3 3.17207e-10 0)
(3 -8.55036e-09 0)
(3 -1.69661e-08 0)
(3 3.30876e-07 0)
(3.00002 1.41141e-06 0)
(2.99992 2.34793e-05 0)
(3.0009 0.000152233 0)
(2.99865 0.00174229 0)
(3.05334 0.0149637 0)
(2.93982 0.0476729 0)
(2.30321 0.488726 0)
(0.633038 0.540541 0)
(0.6915 0.438184 0)
(0.621597 0.429066 0)
(0.519704 0.424043 0)
(0.46713 0.466478 0)
(0.409804 0.530756 0)
(0.355668 0.623814 0)
(0.298677 0.728543 0)
(0.0997877 0.957821 0)
(3 2.10117e-14 0)
(3 2.86973e-14 0)
(3 1.07094e-12 0)
(3 5.99611e-12 0)
(3 8.18463e-11 0)
(3 5.93583e-10 0)
(3 1.51234e-10 0)
(3 3.34475e-08 0)
(3 1.30675e-07 0)
(3.00002 2.40132e-06 0)
(2.99988 1.47533e-05 0)
(3.00103 0.000180468 0)
(2.99663 0.00138027 0)
(3.05392 0.0143959 0)
(2.99317 0.0656609 0)
(2.46879 0.391427 0)
(0.777142 0.597627 0)
(0.75 0.514116 0)
(0.69815 0.496477 0)
(0.61449 0.498313 0)
(0.525427 0.533203 0)
(0.490013 0.586735 0)
(0.433344 0.691975 0)
(0.470256 0.821024 0)
(0.406878 1.14557 0)
(3 8.50597e-15 0)
(3 4.20546e-13 0)
(3 2.85331e-12 0)
(3 3.68827e-12 0)
(3 1.22741e-10 0)
(3 4.10245e-10 0)
(3 9.59551e-09 0)
(3 6.26265e-08 0)
(3 -1.34632e-07 0)
(3.00001 3.38888e-06 0)
(2.99997 4.70076e-06 0)
(3.00042 0.000213459 0)
(2.99952 0.00094648 0)
(3.02428 -0.0501255 0)
(3.0277 0.0813961 0)
(2.61683 0.319523 0)
(0.973301 0.668276 0)
(0.714925 0.521912 0)
(0.742639 0.556103 0)
(0.710436 0.572536 0)
(0.619979 0.595283 0)
(0.594624 0.635919 0)
(0.540737 0.739385 0)
(0.675341 0.84824 0)
(0.64379 1.04926 0)
(3 6.29077e-14 0)
(3 -1.46846e-13 0)
(3 1.30737e-12 0)
(3 4.3041e-12 0)
(3 9.2288e-11 0)
(3 5.76215e-10 0)
(3 -5.77447e-10 0)
(3 2.37839e-08 0)
(3 3.89447e-08 0)
(2.99999 1.4807e-06 0)
(3.00008 7.37934e-06 0)
(2.99963 0.000110852 0)
(3.00353 0.000785976 0)
(2.99473 0.0092208 0)
(3.07171 0.0645942 0)
(2.76764 0.262988 0)
(1.28218 0.746706 0)
(0.642491 0.528756 0)
(0.729893 0.555843 0)
(0.752829 0.642724 0)
(0.715689 0.665194 0)
(0.693292 0.695281 0)
(0.672212 0.749852 0)
(0.771152 0.849868 0)
(0.8383 0.916121 0)
(3 7.61836e-15 0)
(3 1.17957e-13 0)
(3 1.33063e-12 0)
(3 -1.97479e-12 0)
(3 8.97398e-11 0)
(3 -8.22393e-10 0)
(3 3.11564e-09 0)
(3 1.74989e-09 0)
(3 2.50625e-07 0)
(3 6.50911e-08 0)
(3.00001 -1.27044e-06 0)
(3.00003 9.5792e-05 0)
(3.00074 -0.00261828 0)
(3.0014 0.00410374 0)
(3.07116 0.0424215 0)
(2.90493 0.170018 0)
(1.82295 0.855531 0)
(0.632087 0.569958 0)
(0.727313 0.574544 0)
(0.768477 0.631533 0)
(0.757535 0.69087 0)
(0.78124 0.725428 0)
(0.776177 0.773609 0)
(0.854177 0.828765 0)
(0.921329 0.873128 0)
(3 1.25512e-15 0)
(3 -6.20894e-15 0)
(3 -7.64426e-14 0)
(3 -2.50086e-13 0)
(3 1.74309e-11 0)
(3 4.06138e-11 0)
(3 1.02537e-09 0)
(3 -8.34048e-10 0)
(3 2.98066e-08 0)
(3 8.01268e-07 0)
(2.99999 4.1473e-06 0)
(3.00008 -6.34921e-05 0)
(3.00009 0.000402095 0)
(2.99905 0.00312167 0)
(3.05576 0.0277297 0)
(2.96873 0.100422 0)
(2.31914 0.788232 0)
(0.789897 0.668183 0)
(0.781828 0.603361 0)
(0.79306 0.630725 0)
(0.799296 0.689938 0)
(0.830887 0.735289 0)
(0.856343 0.783834 0)
(0.92041 0.827437 0)
(0.991846 0.849437 0)
(3 -2.71946e-15 0)
(3 5.07804e-15 0)
(3 1.01193e-13 0)
(3 -1.16548e-13 0)
(3 7.42155e-12 0)
(3 2.47692e-11 0)
(3 3.5376e-10 0)
(3 3.13992e-09 0)
(3 2.03915e-08 0)
(3 2.8125e-07 0)
(3.00002 1.44661e-06 0)
(2.99992 2.21795e-05 0)
(3.0007 0.000162002 0)
(2.99836 0.00162801 0)
(3.03913 0.0195621 0)
(3.01342 0.104295 0)
(2.60532 0.625788 0)
(1.05404 0.772032 0)
(0.837587 0.65545 0)
(0.836323 0.658843 0)
(0.844201 0.697555 0)
(0.873694 0.742239 0)
(0.913958 0.785927 0)
(0.975764 0.8261 0)
(1.05304 0.835041 0)
(3 -4.87496e-15 0)
(3 2.31487e-14 0)
(3 1.85991e-13 0)
(3 2.97522e-12 0)
(3 -3.14364e-12 0)
(3 5.90666e-11 0)
(3 4.7375e-10 0)
(3 3.77842e-09 0)
(3 9.8005e-08 0)
(3 -1.03715e-07 0)
(3 2.65247e-06 0)
(3.00001 8.18835e-06 0)
(3.00012 8.39503e-05 0)
(3.00065 0.00107693 0)
(3.01106 0.00530215 0)
(3.06047 0.0940463 0)
(2.82285 0.483277 0)
(1.46877 0.874048 0)
(0.8447 0.684043 0)
(0.870581 0.683099 0)
(0.889261 0.713746 0)
(0.916729 0.751754 0)
(0.957883 0.786355 0)
(1.01635 0.816929 0)
(1.09127 0.826244 0)
(3 -2.091e-17 0)
(3 -2.67247e-15 0)
(3 -4.36899e-15 0)
(3 4.21733e-13 0)
(3 1.04744e-12 0)
(3 2.23095e-11 0)
(3 8.92195e-11 0)
(3 1.19991e-09 0)
(3 2.10568e-08 0)
(3 1.19024e-07 0)
(3 1.4284e-06 0)
(3.00003 1.02369e-05 0)
(2.99991 0.000104394 0)
(3.00129 0.000809339 0)
(2.99951 0.0077876 0)
(3.07521 0.0581352 0)
(2.98351 0.300617 0)
(2.09713 1.00219 0)
(0.882131 0.740921 0)
(0.904371 0.720377 0)
(0.924299 0.730067 0)
(0.950069 0.754137 0)
(0.990136 0.778688 0)
(1.04697 0.802983 0)
(1.11851 0.814667 0)
(3 4.26433e-16 0)
(3 1.76749e-15 0)
(3 5.29187e-14 0)
(3 2.82358e-13 0)
(3 4.36289e-12 0)
(3 2.68453e-11 0)
(3 -4.45016e-12 0)
(3 1.15341e-09 0)
(3 3.5644e-09 0)
(3 7.40544e-08 0)
(3 2.88739e-07 0)
(3.00002 5.18952e-06 0)
(2.99994 2.94668e-05 0)
(3.00088 0.000379451 0)
(2.99917 0.00287886 0)
(3.05035 0.0307855 0)
(3.0345 0.180766 0)
(2.57513 0.856096 0)
(1.1473 0.824867 0)
(0.963798 0.755313 0)
(0.970864 0.736867 0)
(0.991487 0.751732 0)
(1.02573 0.77334 0)
(1.07643 0.793859 0)
(1.14262 0.803745 0)
(3 -1.47516e-15 0)
(3 8.65626e-15 0)
(3 4.47414e-14 0)
(3 -5.6143e-14 0)
(3 2.84317e-12 0)
(3 6.89172e-12 0)
(3 1.87904e-10 0)
(3 3.11686e-09 0)
(3 -1.21568e-09 0)
(3 4.93234e-08 0)
(3 1.22453e-07 0)
(3 2.36827e-06 0)
(3.00001 1.64807e-05 0)
(3.00016 0.000142449 0)
(3.00093 0.00159269 0)
(3.01288 0.0105909 0)
(3.0839 0.135522 0)
(2.86402 0.670098 0)
(1.59726 0.925234 0)
(1.0064 0.787019 0)
(1.00945 0.758496 0)
(1.0291 0.764411 0)
(1.06048 0.777836 0)
(1.10448 0.792964 0)
(1.16422 0.798896 0)
(3 1.08756e-16 0)
(3 1.32143e-15 0)
(3 4.67731e-15 0)
(3 6.70034e-14 0)
(3 3.26527e-13 0)
(3 4.63551e-12 0)
(3 2.66291e-11 0)
(3 2.97606e-10 0)
(3 1.8906e-09 0)
(3 2.21716e-08 0)
(3 1.76907e-07 0)
(3 1.65839e-06 0)
(3.00004 1.36862e-05 0)
(2.99987 0.000124634 0)
(3.00168 0.00104059 0)
(2.9984 0.00926808 0)
(3.09284 0.073925 0)
(3.03959 0.425599 0)
(2.23546 1.03287 0)
(1.08382 0.848425 0)
(1.0575 0.797117 0)
(1.06885 0.786029 0)
(1.09341 0.787233 0)
(1.13273 0.792716 0)
(1.18602 0.794744 0)
(3 2.76046e-16 0)
(3 -6.99485e-16 0)
(3 1.86717e-14 0)
(3 2.77486e-13 0)
(3 -1.12754e-13 0)
(3 6.9787e-12 0)
(3 4.71078e-12 0)
(3 2.99609e-10 0)
(3 3.0932e-09 0)
(3 -5.71131e-09 0)
(3 1.24097e-07 0)
(3 5.81065e-08 0)
(3 5.76605e-06 0)
(3.00003 2.62727e-05 0)
(3.00032 0.000248995 0)
(3.00198 0.00318449 0)
(3.02746 0.00820886 0)
(3.11526 0.233517 0)
(2.74804 0.899052 0)
(1.42844 0.925963 0)
(1.12047 0.838371 0)
(1.11465 0.800907 0)
(1.13292 0.795692 0)
(1.16466 0.795977 0)
(1.20957 0.794995 0)
(3 2.11731e-16 0)
(3 8.02893e-16 0)
(3 3.14915e-15 0)
(3 2.08536e-14 0)
(3 1.14454e-13 0)
(3 1.24728e-12 0)
(3 9.57553e-12 0)
(3 8.34715e-11 0)
(3 6.90127e-10 0)
(3 4.51934e-09 0)
(3 4.86301e-08 0)
(3 3.9989e-07 0)
(2.99999 3.53791e-06 0)
(3.00007 2.9407e-05 0)
(2.99976 0.000257765 0)
(3.00305 0.00211475 0)
(2.99787 0.0183058 0)
(3.14498 0.137542 0)
(3.03183 0.656526 0)
(2.02051 1.00023 0)
(1.1845 0.874725 0)
(1.15987 0.824242 0)
(1.17182 0.813777 0)
(1.197 0.805844 0)
(1.23495 0.799281 0)
(3 -1.40373e-16 0)
(3 1.99078e-16 0)
(3 5.21068e-16 0)
(3 3.01637e-14 0)
(3 3.47107e-13 0)
(3 3.68238e-14 0)
(3 1.15248e-11 0)
(3 -1.59378e-11 0)
(3 6.95046e-10 0)
(3 4.78951e-09 0)
(3 5.24837e-10 0)
(3 1.54297e-07 0)
(3 -2.24657e-08 0)
(3.00001 9.26938e-06 0)
(3.00004 5.82001e-05 0)
(3.00056 0.000224944 0)
(3.00281 0.0064536 0)
(3.04785 -0.00393779 0)
(3.14406 0.390967 0)
(2.62919 1.04756 0)
(1.42404 0.949069 0)
(1.21396 0.88873 0)
(1.20858 0.834224 0)
(1.22693 0.82478 0)
(1.2589 0.812007 0)
(3 -5.35444e-17 0)
(3 4.77629e-18 0)
(3 4.55958e-16 0)
(3 4.97848e-15 0)
(3 3.86248e-14 0)
(3 2.68232e-13 0)
(3 2.37108e-12 0)
(3 1.70542e-11 0)
(3 1.53794e-10 0)
(3 1.24051e-09 0)
(3 9.50963e-09 0)
(3 8.36631e-08 0)
(3 5.65188e-07 0)
(2.99998 5.79848e-06 0)
(3.00015 4.61615e-05 0)
(2.99938 0.000398155 0)
(3.0057 0.00310113 0)
(2.99164 0.0264813 0)
(3.20111 0.196078 0)
(3.01516 0.80439 0)
(1.94984 1.01748 0)
(1.29971 0.913311 0)
(1.25112 0.867104 0)
(1.27198 0.835977 0)
(1.29243 0.820939 0)
(3 1.15513e-16 0)
(3 -5.12577e-16 0)
(3 4.38544e-15 0)
(3 -3.76144e-15 0)
(3 3.72792e-14 0)
(3 1.89807e-13 0)
(3 1.5791e-12 0)
(3 5.20133e-11 0)
(3 -1.76564e-11 0)
(3 1.39254e-09 0)
(3 1.33906e-09 0)
(3 5.9637e-08 0)
(3 5.55129e-07 0)
(3 8.68465e-08 0)
(3.00001 1.36176e-05 0)
(3.00005 8.41483e-05 0)
(3.00083 -0.000211577 0)
(3.00286 0.00838615 0)
(3.06797 0.00864486 0)
(3.20705 0.505977 0)
(2.60576 1.09628 0)
(1.49518 0.962878 0)
(1.31249 0.925873 0)
(1.30436 0.854464 0)
(1.32063 0.841592 0)
(3 -7.89492e-17 0)
(3 -1.33123e-16 0)
(3 -5.83914e-17 0)
(3 1.67111e-16 0)
(3 8.17565e-15 0)
(3 6.28637e-14 0)
(3 5.0466e-13 0)
(3 4.07057e-12 0)
(3 2.75493e-11 0)
(3 2.47453e-10 0)
(3 1.85247e-09 0)
(3 1.52457e-08 0)
(3 1.21176e-07 0)
(3 7.98163e-07 0)
(2.99998 7.70679e-06 0)
(3.00021 5.81639e-05 0)
(2.99907 0.000500751 0)
(3.00703 0.00368474 0)
(2.99146 0.0317948 0)
(3.24572 0.236691 0)
(3.04169 0.875715 0)
(2.00342 1.03039 0)
(1.4045 0.948205 0)
(1.34477 0.894283 0)
(1.36214 0.851564 0)
(3 1.20474e-16 0)
(3 2.4664e-16 0)
(3 1.82137e-16 0)
(3 4.03451e-16 0)
(3 8.42892e-15 0)
(3 1.0641e-14 0)
(3 -8.40353e-14 0)
(3 1.77483e-12 0)
(3 2.34544e-11 0)
(3 1.89424e-11 0)
(3 1.37966e-09 0)
(3 -4.27607e-10 0)
(3 7.89979e-08 0)
(3 6.28627e-07 0)
(3 2.27927e-07 0)
(3.00002 5.10236e-06 0)
(3.00006 0.000114784 0)
(3.00099 -0.00191678 0)
(3.00251 0.0100929 0)
(3.08312 0.0249383 0)
(3.25777 0.534901 0)
(2.65746 1.08504 0)
(1.60017 0.974572 0)
(1.40977 0.947049 0)
(1.39404 0.871113 0)
(3 1.72518e-17 0)
(3 -5.71728e-17 0)
(3 -8.43339e-17 0)
(3 -4.60308e-16 0)
(3 1.01564e-15 0)
(3 9.99459e-15 0)
(3 8.40928e-14 0)
(3 6.28496e-13 0)
(3 5.18261e-12 0)
(3 3.74844e-11 0)
(3 3.12414e-10 0)
(3 2.07712e-09 0)
(3 1.8598e-08 0)
(3 1.43457e-07 0)
(3 1.03118e-06 0)
(3.00003 8.80445e-06 0)
(2.99998 5.61192e-05 0)
(2.99878 0.000548557 0)
(3.00631 0.00388929 0)
(2.99329 0.0339437 0)
(3.26249 0.276147 0)
(3.10458 0.888829 0)
(2.13206 1.0493 0)
(1.50689 0.967809 0)
(1.43799 0.9191 0)
(3 -2.09737e-16 0)
(3 -2.88348e-16 0)
(3 -7.42963e-16 0)
(3 -8.19529e-16 0)
(3 -1.70633e-15 0)
(3 1.12326e-14 0)
(3 9.44323e-14 0)
(3 -3.69581e-15 0)
(3 4.52466e-12 0)
(3 1.12181e-11 0)
(3 2.6562e-10 0)
(3 2.4443e-09 0)
(3 2.26141e-09 0)
(3 2.91055e-08 0)
(3 3.8125e-07 0)
(3 -1.2464e-06 0)
(3.00001 3.70836e-05 0)
(3.00009 2.36314e-05 0)
(3.00091 0.000361932 0)
(3.00405 0.00805407 0)
(3.07652 0.0715863 0)
(3.42963 0.55703 0)
(2.88125 1.02551 0)
(1.7966 0.981915 0)
(1.56634 0.975308 0)
(3 5.13547e-17 0)
(3 2.25567e-16 0)
(3 -3.8991e-17 0)
(3 5.4729e-17 0)
(3 6.18789e-17 0)
(3 1.26787e-15 0)
(3 1.42725e-14 0)
(3 9.7531e-14 0)
(3 8.49788e-13 0)
(3 6.65052e-12 0)
(3 4.73839e-11 0)
(3 3.95453e-10 0)
(3 2.39379e-09 0)
(3 2.22192e-08 0)
(3 1.42556e-07 0)
(3 1.27239e-06 0)
(3.00001 4.07193e-05 0)
(3.00002 -6.62281e-05 0)
(3.00006 0.000619769 0)
(3.00176 -0.000146417 0)
(3.00994 0.0449956 0)
(3.20413 -0.365843 0)
(3.15103 0.908037 0)
(2.34306 1.08939 0)
(1.59432 0.967076 0)
(3 1.35579e-18 0)
(3 -1.33041e-16 0)
(3 -3.66078e-17 0)
(3 -1.34346e-16 0)
(3 -5.9705e-18 0)
(3 -1.11783e-15 0)
(3 6.28994e-15 0)
(3 1.81203e-14 0)
(3 3.33e-13 0)
(3 1.11908e-12 0)
(3 1.82173e-11 0)
(3 8.86807e-11 0)
(3 9.8217e-10 0)
(3 3.11214e-09 0)
(3 5.67151e-08 0)
(3 2.9028e-07 0)
(3.00001 -1.26454e-05 0)
(3.00001 1.97675e-05 0)
(2.99988 0.000125371 0)
(3.00222 0.00114117 0)
(2.99842 0.00733549 0)
(2.90032 0.069358 0)
(3.46579 0.526279 0)
(3.03628 1.15344 0)
(1.94652 1.06447 0)
(3 -1.03994e-16 0)
(3 -2.81286e-16 0)
(3 -1.2694e-16 0)
(3 9.75324e-17 0)
(3 -4.5834e-17 0)
(3 -1.28207e-16 0)
(3 6.53497e-16 0)
(3 7.36237e-15 0)
(3 1.1361e-13 0)
(3 2.6222e-13 0)
(3 7.52611e-12 0)
(3 2.01071e-11 0)
(3 3.98926e-10 0)
(3 1.62133e-09 0)
(3 2.17417e-08 0)
(3 1.20356e-07 0)
(3 1.08229e-06 0)
(3 8.06251e-06 0)
(3.00007 5.19388e-05 0)
(2.99991 0.000607607 0)
(3.00375 0.00411563 0)
(2.99877 0.00403796 0)
(3.16456 -0.0410586 0)
(3.36136 0.728137 0)
(2.6534 1.07507 0)
(3 -1.56009e-16 0)
(3 -2.1091e-17 0)
(3 -2.37938e-16 0)
(3 -4.60752e-16 0)
(3 -5.85374e-16 0)
(3 -8.9969e-16 0)
(3 -7.49094e-16 0)
(3 8.2135e-16 0)
(3 2.3762e-14 0)
(3 2.58981e-14 0)
(3 1.27495e-12 0)
(3 -3.14184e-12 0)
(3 5.24711e-11 0)
(3 1.23733e-10 0)
(3 -2.592e-10 0)
(3 -7.21751e-09 0)
(3 -1.99821e-07 0)
(3.00001 5.74531e-07 0)
(2.99998 1.52185e-05 0)
(3.00022 9.53824e-05 0)
(2.99978 0.000985387 0)
(3.0099 0.00609654 0)
(2.96546 0.0546965 0)
(3.35974 0.411554 0)
(3.15706 1.00602 0)
(3 -5.58785e-17 0)
(3 5.13189e-17 0)
(3 5.13189e-17 0)
(3 -4.98739e-17 0)
(3 -2.44846e-16 0)
(3 4.73631e-16 0)
(3 7.54478e-16 0)
(3 1.04487e-15 0)
(3 4.71379e-15 0)
(3 6.32856e-14 0)
(3 3.48918e-13 0)
(3 1.57238e-12 0)
(3 4.62631e-11 0)
(3 1.75899e-10 0)
(3 3.63646e-09 0)
(3 2.1523e-08 0)
(3 3.56692e-08 0)
(3 7.96518e-07 0)
(3 -1.05352e-07 0)
(3.00002 3.75117e-05 0)
(3.00016 0.000134671 0)
(3.00121 0.00120271 0)
(3.00575 0.00777332 0)
(3.11925 0.0780691 0)
(3.48214 0.618422 0)
(3 5.13189e-17 0)
(3 -4.27889e-18 0)
(3 5.13189e-17 0)
(3 -1.2479e-16 0)
(3 2.36818e-16 0)
(3 2.94277e-16 0)
(3 5.89678e-16 0)
(3 1.03826e-15 0)
(3 2.65543e-15 0)
(3 1.07368e-14 0)
(3 1.13919e-13 0)
(3 7.08766e-13 0)
(3 2.87289e-12 0)
(3 4.78938e-11 0)
(3 2.48088e-10 0)
(3 2.91029e-09 0)
(3 1.62757e-08 0)
(3 1.88834e-07 0)
(3 1.65342e-06 0)
(3.00001 1.78333e-05 0)
(3.00003 -2.35941e-05 0)
(3.00019 0.00140172 0)
(3.00215 -0.0156912 0)
(3.00471 0.0499189 0)
(3.28994 -0.284769 0)
(3 1.53957e-16 0)
(3 3.68868e-16 0)
(3 -9.35408e-17 0)
(3 4.17788e-16 0)
(3 5.72243e-16 0)
(3 5.40273e-16 0)
(3 6.42568e-16 0)
(3 8.9898e-17 0)
(3 1.75484e-15 0)
(3 -2.41134e-15 0)
(3 8.55175e-14 0)
(3 3.01982e-13 0)
(3 1.87504e-12 0)
(3 2.29118e-11 0)
(3 5.01828e-11 0)
(3 1.31671e-09 0)
(3 4.92314e-09 0)
(3 5.76038e-08 0)
(3 3.48126e-07 0)
(3 2.97236e-06 0)
(3.00006 2.19096e-05 0)
(2.99991 0.000114674 0)
(2.99774 0.00116644 0)
(2.99887 0.00779001 0)
(2.91827 0.0717983 0)
(3 -1.02638e-16 0)
(3 2.23469e-17 0)
(3 -1.08005e-16 0)
(3 8.95463e-17 0)
(3 1.04152e-16 0)
(3 1.13756e-16 0)
(3 1.25749e-16 0)
(3 1.32822e-16 0)
(3 -8.00557e-17 0)
(3 3.89281e-15 0)
(3 2.38001e-14 0)
(3 3.0306e-14 0)
(3 9.30476e-13 0)
(3 1.89984e-12 0)
(3 6.77109e-11 0)
(3 1.0256e-10 0)
(3 4.00325e-09 0)
(3 1.86759e-08 0)
(3 2.48338e-07 0)
(3 1.61325e-06 0)
(2.99999 1.72155e-05 0)
(3.0001 0.000113861 0)
(2.99984 0.000184132 0)
(3.00341 0.00270183 0)
(2.99926 0.00177184 0)
(3 5.80305e-25 0)
(3 -4.1119e-17 0)
(3 1.54785e-16 0)
(3 -1.52537e-16 0)
(3 -1.5539e-16 0)
(3 -1.19856e-16 0)
(3 8.3539e-18 0)
(3 2.38428e-16 0)
(3 -2.60022e-16 0)
(3 2.80661e-15 0)
(3 1.5348e-14 0)
(3 2.25939e-14 0)
(3 -1.18951e-12 0)
(3 2.67168e-12 0)
(3 -8.15107e-11 0)
(3 2.67558e-10 0)
(3 -4.38265e-10 0)
(3 7.08336e-09 0)
(3 2.66664e-08 0)
(3 5.70119e-08 0)
(3 2.42705e-06 0)
(3.00002 -3.438e-05 0)
(3.00003 7.77866e-05 0)
(3.00034 0.000581929 0)
(3.00253 0.00507494 0)
(3 2.56595e-16 0)
(3 2.05162e-16 0)
(3 5.25514e-16 0)
(3 4.31484e-16 0)
(3 3.9327e-16 0)
(3 1.42833e-17 0)
(3 -1.23612e-16 0)
(3 -3.19533e-16 0)
(3 -4.32537e-16 0)
(3 -4.76091e-16 0)
(3 1.74165e-15 0)
(3 9.73735e-15 0)
(3 1.13478e-13 0)
(3 2.99822e-13 0)
(3 6.46551e-12 0)
(3 3.47196e-11 0)
(3 3.34495e-10 0)
(3 2.44988e-09 0)
(3 1.59835e-08 0)
(3 1.25966e-07 0)
(3 8.54405e-07 0)
(2.99999 6.11423e-06 0)
(3.00007 2.80481e-05 0)
(2.99977 0.000172786 0)
(3.00279 0.00108666 0)
(3 -1.53957e-16 0)
(3 -2.56595e-16 0)
(3 -3.07913e-16 0)
(3 -3.07913e-16 0)
(3 -4.10551e-16 0)
(3 -4.39046e-16 0)
(3 -4.877e-16 0)
(3 -3.97237e-16 0)
(3 -2.33228e-16 0)
(3 1.02484e-16 0)
(3 6.07068e-16 0)
(3 -4.77729e-17 0)
(3 -2.61258e-14 0)
(3 7.88856e-14 0)
(3 -7.62362e-13 0)
(3 6.93365e-12 0)
(3 -1.09791e-12 0)
(3 -2.83647e-12 0)
(3 -1.33286e-09 0)
(3 -3.0733e-08 0)
(3 -2.8656e-08 0)
(3 -1.27462e-06 0)
(3 7.26647e-06 0)
(3.00007 3.84416e-05 0)
(2.99994 0.000581977 0)
(3 -2.73206e-17 0)
(3 -7.61552e-17 0)
(3 -2.07175e-20 0)
(3 2.0524e-16 0)
(3 3.05714e-16 0)
(3 3.22009e-16 0)
(3 1.94212e-16 0)
(3 4.91738e-17 0)
(3 2.09598e-17 0)
(3 -1.92935e-16 0)
(3 4.97061e-17 0)
(3 -4.72995e-16 0)
(3 7.94819e-15 0)
(3 -2.688e-13 0)
(3 5.03918e-13 0)
(3 1.61339e-12 0)
(3 1.67451e-11 0)
(3 1.76513e-10 0)
(3 -6.37205e-10 0)
(3 6.70321e-09 0)
(3 4.07793e-08 0)
(3 3.16733e-07 0)
(3 6.31184e-07 0)
(3.00001 9.21298e-06 0)
(3.00006 0.000112875 0)
(3 1.53957e-16 0)
(3 2.56595e-16 0)
(3 2.56595e-16 0)
(3 2.56595e-16 0)
(3 2.56595e-16 0)
(3 3.28906e-16 0)
(3 2.84958e-16 0)
(3 -2.37771e-17 0)
(3 -1.84813e-16 0)
(3 -2.68644e-16 0)
(3 -3.07692e-16 0)
(3 2.21029e-16 0)
(3 1.11915e-15 0)
(3 1.01486e-14 0)
(3 3.93285e-14 0)
(3 2.28865e-13 0)
(3 6.75983e-13 0)
(3 -1.69223e-11 0)
(3 -2.21048e-10 0)
(3 -1.69431e-09 0)
(3 3.38285e-09 0)
(3 1.66141e-09 0)
(3 4.37867e-07 0)
(3.00001 -1.82577e-06 0)
(3.00001 3.23721e-05 0)
(3 -1.02638e-16 0)
(3 -3.59232e-16 0)
(3 -6.15827e-16 0)
(3 -7.69784e-16 0)
(3 -7.69784e-16 0)
(3 -6.15825e-16 0)
(3 -4.22792e-16 0)
(3 -2.4898e-16 0)
(3 -2.48225e-16 0)
(3 2.75528e-16 0)
(3 5.6477e-16 0)
(3 6.20499e-16 0)
(3 -2.56414e-16 0)
(3 7.07056e-16 0)
(3 -1.51517e-15 0)
(3 9.10372e-14 0)
(3 7.61272e-13 0)
(3 9.15429e-12 0)
(3 2.29822e-11 0)
(3 4.46622e-10 0)
(3 -2.50934e-09 0)
(3 2.91454e-08 0)
(3 1.36704e-07 0)
(3 -1.21081e-06 0)
(3 2.71841e-05 0)
(3 -1.02638e-16 0)
(3 -1.53957e-16 0)
(3 -1.53957e-16 0)
(3 -1.59866e-16 0)
(3 -2.24023e-17 0)
(3 -2.7329e-16 0)
(3 -1.81093e-16 0)
(3 -1.99369e-16 0)
(3 -1.58249e-16 0)
(3 -2.79194e-16 0)
(3 -7.04263e-16 0)
(3 -1.19701e-15 0)
(3 -1.52459e-15 0)
(3 -1.32328e-16 0)
(3 5.70538e-15 0)
(3 3.62338e-14 0)
(3 1.86162e-13 0)
(3 -3.13286e-13 0)
(3 -1.91775e-12 0)
(3 -9.14643e-11 0)
(3 2.36807e-11 0)
(3 2.53192e-09 0)
(3 1.37116e-08 0)
(3 1.85097e-07 0)
(3.00002 1.46575e-06 0)
(3 5.13189e-17 0)
(3 -5.13189e-17 0)
(3 5.13189e-17 0)
(3 -1.34678e-16 0)
(3 2.25987e-16 0)
(3 -1.24748e-16 0)
(3 -2.02753e-16 0)
(3 -3.91219e-16 0)
(3 -6.401e-16 0)
(3 -9.40929e-16 0)
(3 -1.03285e-15 0)
(3 -9.36023e-16 0)
(3 -6.55901e-16 0)
(3 3.1479e-16 0)
(3 -7.05669e-16 0)
(3 1.41563e-14 0)
(3 1.04067e-13 0)
(3 1.15079e-12 0)
(3 -6.45202e-13 0)
(3 2.48208e-11 0)
(3 1.53889e-10 0)
(3 9.21177e-11 0)
(3 7.21247e-09 0)
(3 -1.58007e-07 0)
(3 9.63914e-07 0)
(3 5.13189e-17 0)
(3 1.86001e-16 0)
(3 1.92858e-17 0)
(3 3.92127e-16 0)
(3 -2.89656e-16 0)
(3 1.02789e-16 0)
(3 -5.13131e-16 0)
(3 -5.1311e-16 0)
(3 -9.23926e-16 0)
(3 -8.85599e-16 0)
(3 -9.24409e-16 0)
(3 -6.92403e-16 0)
(3 -8.58119e-16 0)
(3 -1.01409e-15 0)
(3 -7.6486e-16 0)
(3 2.53541e-15 0)
(3 1.13643e-14 0)
(3 1.09011e-13 0)
(3 4.84316e-13 0)
(3 -4.32206e-13 0)
(3 1.54271e-11 0)
(3 1.63769e-10 0)
(3 1.2115e-10 0)
(3 6.64468e-09 0)
(3 3.92242e-08 0)
(3 5.13189e-17 0)
(3 2.05276e-16 0)
(3 3.07913e-16 0)
(3 3.07913e-16 0)
(3 4.10551e-16 0)
(3 6.15827e-16 0)
(3 3.07913e-16 0)
(3 2.98783e-16 0)
(3 3.59232e-16 0)
(3 1.53957e-16 0)
(3 -1.48194e-17 0)
(3 -2.6662e-16 0)
(3 -6.5768e-16 0)
(3 -1.0053e-15 0)
(3 -1.0356e-15 0)
(3 3.40785e-17 0)
(3 -5.44688e-15 0)
(3 8.02889e-14 0)
(3 -6.15112e-14 0)
(3 2.20455e-12 0)
(3 1.11122e-11 0)
(3 4.40244e-11 0)
(3 7.2172e-10 0)
(3 2.51434e-09 0)
(3 4.61582e-08 0)
(3 -5.13189e-17 0)
(3 -1.02638e-16 0)
(3 -3.07913e-16 0)
(3 -3.4968e-16 0)
(3 -4.77409e-16 0)
(3 -4.10551e-16 0)
(3 -2.05276e-16 0)
(3 -1.52918e-16 0)
(3 6.00269e-17 0)
(3 4.07232e-17 0)
(3 1.72121e-16 0)
(3 1.16518e-16 0)
(3 2.81881e-16 0)
(3 4.98587e-16 0)
(3 6.55074e-16 0)
(3 1.06121e-15 0)
(3 1.72447e-15 0)
(3 9.77075e-15 0)
(3 4.01061e-14 0)
(3 1.43979e-13 0)
(3 1.09115e-12 0)
(3 9.60289e-12 0)
(3 -5.14253e-12 0)
(3 -1.60063e-11 0)
(3 -4.06707e-09 0)
(3 -1.02638e-16 0)
(3 -2.56595e-16 0)
(3 -5.64508e-16 0)
(3 -7.18465e-16 0)
(3 -8.72421e-16 0)
(3 -1.01052e-15 0)
(3 -8.6104e-16 0)
(3 -1.02757e-15 0)
(3 -1.18039e-15 0)
(3 -1.16481e-15 0)
(3 -9.9567e-16 0)
(3 -6.80505e-16 0)
(3 -6.64484e-16 0)
(3 5.67433e-17 0)
(3 3.77208e-16 0)
(3 6.29392e-16 0)
(3 1.21234e-15 0)
(3 8.96298e-15 0)
(3 2.39548e-14 0)
(3 4.16763e-13 0)
(3 3.13962e-12 0)
(3 2.40243e-11 0)
(3 2.69785e-10 0)
(3 1.95304e-09 0)
(3 2.19087e-08 0)
(1.18971 1.08046 0)
(0.243789 0.520158 0)
(-0.577082 -0.0704019 0)
(-0.449992 -0.225213 0)
(-0.499687 -0.15083 0)
(-0.435559 -0.0185251 0)
(-0.74321 0.146281 0)
(-1.00294 0.128234 0)
(-1.1676 0.109902 0)
(-1.24654 0.0873355 0)
(-1.27348 0.0696877 0)
(-1.27568 0.0213028 0)
(-1.38119 -0.0033866 0)
(-1.44781 -0.0282595 0)
(-1.48566 -0.024624 0)
(-1.49721 -0.0220461 0)
(-1.49402 -0.016641 0)
(-1.48752 -0.0176947 0)
(-1.48415 -0.0131928 0)
(-1.48241 -0.0105396 0)
(-1.48211 -0.006672 0)
(-1.48396 -0.00108805 0)
(-1.484 0.00579776 0)
(-1.48406 0.00661242 0)
(-1.48301 0.00558564 0)
(-1.4815 0.00279605 0)
(-1.47309 0.000448062 0)
(-1.46491 -0.000769 0)
(-1.4389 -0.000807637 0)
(-1.41548 0.00146912 0)
(-1.36841 0.0056885 0)
(-1.32202 0.00777267 0)
(-1.26489 0.00919408 0)
(-1.20795 0.00509948 0)
(-1.15352 -0.00122224 0)
(-1.09874 -0.0119199 0)
(-1.02947 -0.0230052 0)
(-0.955665 -0.0345835 0)
(-0.880433 -0.0487094 0)
(-0.810349 -0.0544366 0)
(-0.745196 -0.0442152 0)
(-0.665351 -0.0371803 0)
(-0.585435 -0.0321494 0)
(-0.510396 -0.0126439 0)
(-0.434949 -0.0034896 0)
(-0.369003 0.010517 0)
(-0.321398 0.0175611 0)
(-0.259632 -0.00185767 0)
(-0.190336 -0.0144746 0)
(-0.119243 -0.0197907 0)
(-0.0516584 -0.0194344 0)
(0.014016 -0.0213627 0)
(0.080126 -0.0212299 0)
(0.136524 -0.0186206 0)
(0.190936 -0.0189443 0)
(0.24044 -0.0184233 0)
(0.287143 -0.0184114 0)
(0.332339 -0.0186689 0)
(0.374885 -0.0185023 0)
(0.414868 -0.017876 0)
(0.453259 -0.0173909 0)
(0.489822 -0.016033 0)
(0.523898 -0.0152033 0)
(0.555957 -0.0138745 0)
(0.585616 -0.0133412 0)
(0.613884 -0.0124057 0)
(0.64024 -0.0118999 0)
(0.665527 -0.01147 0)
(0.68948 -0.0107838 0)
(0.711849 -0.0104791 0)
(0.733337 -0.0102502 0)
(0.753125 -0.00925457 0)
(0.772263 -0.00918885 0)
(0.789646 -0.00782101 0)
(0.806818 -0.00810386 0)
(0.822073 -0.0059786 0)
(0.836624 -0.00625441 0)
(0.849279 -0.0047219 0)
(0.861087 -0.00430053 0)
(0.870258 -0.00311178 0)
(0.87795 -0.00268339 0)
(0.884034 -0.00206697 0)
(0.888424 -0.00162877 0)
(0.890959 -0.000566872 0)
(0.890228 -7.38483e-05 0)
(0.888042 0.000315919 0)
(0.883983 0.00077148 0)
(0.877501 0.00136466 0)
(0.868303 0.0020349 0)
(0.856469 0.00280805 0)
(0.842232 0.00346474 0)
(0.826097 0.00429709 0)
(0.808808 0.00472962 0)
(0.790955 0.00534999 0)
(0.774228 0.00512836 0)
(0.759163 0.00514556 0)
(0.746329 0.00414971 0)
(0.737321 0.00384479 0)
(0.729584 0.00238156 0)
(0.728634 0.000384622 0)
(1.21665 0.995825 0)
(1.0623 0.768169 0)
(0.642828 0.533563 0)
(0.471606 0.251759 0)
(-0.15189 0.102133 0)
(-0.271714 0.172899 0)
(-0.623286 0.200385 0)
(-0.782377 0.128589 0)
(-0.878753 0.0628732 0)
(-0.896628 0.0168307 0)
(-0.889062 -0.020187 0)
(-0.88915 -0.0589452 0)
(-0.987999 -0.0406599 0)
(-1.059 0.0378484 0)
(-1.09769 0.0536906 0)
(-1.10662 0.0344018 0)
(-1.10228 0.00431231 0)
(-1.0989 0.00248836 0)
(-1.09593 -0.00035644 0)
(-1.09459 -0.001141 0)
(-1.09405 -0.00326029 0)
(-1.10616 -0.00725729 0)
(-1.11662 -0.00793278 0)
(-1.12282 -0.00603191 0)
(-1.12541 -0.00539977 0)
(-1.12491 -0.000289986 0)
(-1.10889 -0.00067753 0)
(-1.09527 0.00182846 0)
(-1.06095 -0.00550588 0)
(-1.0285 -0.0062939 0)
(-0.979014 -0.0187954 0)
(-0.926745 -0.0241003 0)
(-0.863958 -0.0314333 0)
(-0.798531 -0.0363444 0)
(-0.735466 -0.0445988 0)
(-0.677781 -0.038743 0)
(-0.606713 -0.0363173 0)
(-0.530739 -0.0311836 0)
(-0.442934 -0.0346756 0)
(-0.370831 -0.0218547 0)
(-0.310424 -0.0296594 0)
(-0.200546 -0.0572979 0)
(-0.0997022 -0.0756439 0)
(0.00580637 -0.0892181 0)
(0.119784 -0.102453 0)
(0.226796 -0.100608 0)
(0.347221 -0.105281 0)
(0.444032 -0.105294 0)
(0.524585 -0.1021 0)
(0.587056 -0.0958374 0)
(0.644087 -0.0912246 0)
(0.696499 -0.0871565 0)
(0.741826 -0.0807368 0)
(0.783166 -0.0735147 0)
(0.822433 -0.0675889 0)
(0.855938 -0.0615574 0)
(0.886585 -0.0557359 0)
(0.916549 -0.0518842 0)
(0.942523 -0.0468444 0)
(0.967156 -0.042653 0)
(0.990682 -0.0394164 0)
(1.01292 -0.036574 0)
(1.03373 -0.0326401 0)
(1.05409 -0.0297765 0)
(1.07221 -0.0262881 0)
(1.09032 -0.0239717 0)
(1.10666 -0.0214033 0)
(1.12251 -0.0192385 0)
(1.1369 -0.0171422 0)
(1.15078 -0.014951 0)
(1.16272 -0.0127269 0)
(1.17448 -0.0116236 0)
(1.18394 -0.00944827 0)
(1.19277 -0.00909416 0)
(1.20056 -0.00701204 0)
(1.20732 -0.0066018 0)
(1.2128 -0.00414321 0)
(1.21804 -0.00331174 0)
(1.22099 -0.00155004 0)
(1.22376 0.000708965 0)
(1.22364 0.00194226 0)
(1.2226 0.00355407 0)