/*--------------------------------*- C++ -*----------------------------------*\
| =========                 |                                                 |
| \\      /  F ield         | OpenFOAM: The Open Source CFD Toolbox           |
|  \\    /   O peration     | Version:  v2106                                 |
|   \\  /    A nd           | Website:  www.openfoam.com                      |
|    \\/     M anipulation  |                                                 |
\*---------------------------------------------------------------------------*/
FoamFile
{
    version     2.0;
    format      ascii;
    arch        "LSB;label=32;scalar=64";
    class       volScalarField;
    location    "11";
    object      p;
}
// * * * * * * * * * * * * * * * * * * * * * * * * * * * * * * * * * * * * * //

dimensions      [1 -1 -2 0 0 0 0];

internalField   nonuniform List<scalar> 
5250
(
1
1
1
1
1
1
1
1
1.00001
1.00008
1.00074
1.00654
1.05814
1.45242
3.20317
9.21365
12.8252
10.9085
11.4854
11.6795
11.7759
11.9244
12.0259
12.1092
12.155
1
1
1
1
1
1
1
1
1.00001
1.00008
1.0007
1.00623
1.05486
1.43438
3.12636
9.07952
12.8969
10.8917
11.4703
11.6748
11.7681
11.9164
12.018
12.1004
12.1463
1
1
1
1
1
1
1
1
1.00001
1.00007
1.00065
1.00578
1.05031
1.40797
3.02411
8.74051
12.9903
10.8199
11.4116
11.619
11.7079
11.8552
11.9583
12.0358
12.0758
1
1
1
1
1
1
1
1
1.00001
1.00007
1.00057
1.00523
1.04446
1.37269
2.88448
8.27965
13.1172
10.7458
11.3591
11.5654
11.6557
11.7968
11.8897
11.9559
11.9931
1
1
1
1
1
1
1
1
1.00001
1.00006
1.00049
1.00465
1.03791
1.33089
2.71512
7.71985
13.1847
10.6639
11.2681
11.4872
11.5576
11.6807
11.7687
11.832
11.867
1
1
1
1
1
1
1
1
1.00001
1.00005
1.0004
1.00371
1.03084
1.28464
2.52146
7.11234
13.1397
10.6151
11.176
11.3846
11.4588
11.5596
11.6326
11.6578
11.6846
1
1
1
1
1
1
1
1
1
1.00004
1.00028
1.00287
1.024
1.23554
2.3049
6.43753
12.9505
10.6177
11.0378
11.261
11.307
11.3704
11.4256
11.4479
11.4435
1
1
1
1
1
1
1
1
1
1.00003
1.00021
1.00257
1.01956
1.19827
2.14209
5.79179
12.3805
10.613
10.8834
11.0746
11.1587
11.1855
11.1655
11.1691
11.0744
1
1
1
1
1
1
1
1
1
1.00003
1.00015
1.00205
1.01499
1.15783
1.95608
5.12098
11.5927
10.6005
10.7107
10.8756
10.9237
10.8773
10.7931
10.7169
10.4983
1
1
1
1
1
1
1
1
1
1.00003
1.0001
1.00177
1.01134
1.13309
1.78945
4.49284
10.6477
10.5928
10.5833
10.5821
10.6561
10.5967
10.3241
10.3756
9.4509
1
1
1
1
1
1
1
1
1
1.00002
1.00009
1.00115
1.00875
1.09017
1.61864
3.86158
9.56265
10.6128
10.3963
10.2948
10.2571
10.2057
9.70602
9.34285
6.88484
1
1
1
1
1
1
1
1
1
1.00001
1.00009
1.00056
1.0066
1.05007
1.4629
3.28613
8.414
10.7005
10.0376
10.0086
9.89485
9.75755
9.09732
8.47458
6.52956
1
1
1
1
1
1
1
1
1
1.00001
1.00006
1.00047
1.00431
1.03522
1.31325
2.62664
7.09701
10.7249
9.74294
9.72625
9.61918
9.38491
8.77477
7.99623
6.65903
1
1
1
1
1
1
1
1
1
1
1.00003
1.00024
1.00264
1.02132
1.21316
2.21062
5.85919
10.4625
9.63089
9.48408
9.37567
9.08468
8.50899
7.77818
6.65262
1
1
1
1
1
1
1
1
1
1
1.00003
1.00012
1.00226
1.01317
1.15621
1.86243
4.76871
9.44294
9.61373
9.36192
9.12642
8.78963
8.26252
7.6158
6.64943
1
1
1
1
1
1
1
1
1
1
1.00001
1.00012
1.0011
1.009
1.08427
1.57213
3.73745
8.0734
9.53633
9.13387
8.83728
8.50715
8.05744
7.49788
6.65486
1
1
1
1
1
1
1
1
1
1
1.00002
1.00011
1.00007
1.00527
1.02464
1.34153
2.82183
6.66205
9.42037
8.91113
8.61804
8.32509
7.90091
7.38536
6.64984
1
1
1
1
1
1
1
1
1
1
1
1.00005
1.00021
1.00304
1.02019
1.2114
2.15136
5.25306
8.92705
8.84732
8.53431
8.21309
7.79619
7.29012
6.63737
1
1
1
1
1
1
1
1
1
1
1
1.00002
1.00016
1.00149
1.01217
1.10998
1.71989
4.08881
7.87159
8.83506
8.45735
8.06106
7.65141
7.18813
6.60923
1
1
1
1
1
1
1
1
1
1
1
0.999996
1.00011
1.0003
1.00709
1.03944
1.45426
3.01632
6.38893
8.61952
8.23567
7.89482
7.53205
7.11717
6.60126
1
1
1
1
1
1
1
1
1
1
1
1
1.00004
1.00033
1.00281
1.02334
1.18828
2.10502
4.85318
7.96135
8.13185
7.83133
7.47436
7.0768
6.60237
1
1
1
1
1
1
1
1
1
1
1
1
1.00004
1.00025
1.00002
1.01447
1.04568
1.73091
3.62932
6.76971
8.11313
7.79
7.44484
7.06031
6.61307
1
1
1
1
1
1
1
1
1
1
1
1
1.00001
1.00007
1.00051
1.00447
1.0343
1.27638
2.48915
5.30809
7.73111
7.6522
7.38707
7.03413
6.61157
1
1
1
1
1
1
1
1
1
1
1
1
1
1.00006
1.00031
1.00013
1.01634
1.0295
1.8375
3.99305
6.84545
7.72493
7.41402
7.05089
6.63754
1
1
1
1
1
1
1
1
1
1
1
1
1
1.00001
1.00009
1.00071
1.00611
1.04605
1.36541
2.79271
5.48778
7.50971
7.32636
7.01889
6.64362
1
1
1
1
1
1
1
1
1
1
1
1
1
1
1.00008
1.0004
1.00023
1.01828
1.05751
1.94445
4.11011
6.68613
7.35434
7.03792
6.67326
1
1
1
1
1
1
1
1
1
1
1
1
1
1
1.00001
1.00011
1.00082
1.007
1.05136
1.40006
2.84748
5.33483
7.10363
6.94077
6.65209
1
1
1
1
1
1
1
1
1
1
1
1
1
1
1
1.00007
1.00035
0.999886
1.0195
1.04965
1.90722
3.95468
6.29666
6.9579
6.66793
1
1
1
1
1
1
1
1
1
1
1
1
1
1
1
1.00001
1.00012
1.00079
1.00699
1.0473
1.39036
2.74057
5.03002
6.71158
6.62654
1
1
1
1
1
1
1
1
1
1
1
1
1
1
1
1
1.00004
1.00018
0.999453
1.01571
1.05163
1.81839
3.69169
5.88121
6.6643
1
1
1
1
1
1
1
1
1
1
1
1
1
1
1
1
1
1.0001
1.00054
1.00582
1.039
1.33844
2.52768
4.63832
6.33024
1
1
1
1
1
1
1
1
1
1
1
1
1
1
1
1
1
1.00003
1.00019
0.999879
1.01237
1.06408
1.71389
3.30107
5.40136
1
1
1
1
1
1
1
1
1
1
1
1
1
1
1
1
1
1.00001
1.00008
1.00062
1.00512
1.03647
1.28944
2.35846
4.30221
1
1
1
1
1
1
1
1
1
1
1
1
1
1
1
1
1
1
1.00001
1.00016
1.00086
1.00764
1.05391
1.54639
2.81224
1
1
1
1
1
1
1
1
1
1
1
1
1
1
1
1
1
1
1.00001
1.00005
1.00043
1.00216
1.02481
1.0592
1.72667
1
1
1
1
1
1
1
1
1
1
1
1
1
1
1
1
1
1
1
1.00001
1.0001
1.0006
1.0062
1.03626
1.31234
1
1
1
1
1
1
1
1
1
1
1
1
1
1
1
1
1
1
1
1
1.00002
1.00018
1.00112
1.00978
1.04459
1
1
1
1
1
1
1
1
1
1
1
1
1
1
1
1
1
1
1
0.999999
0.999991
0.999882
1.0003
1.00234
1.02186
1
1
1
1
1
1
1
1
1
1
1
1
1
1
1
1
1
1
1
1
1
1.00001
1.00001
1.00077
1.00428
1
1
1
1
1
1
1
1
1
1
1
1
1
1
1
1
1
1
1
1
1
1
1.00002
1.00017
1.00134
1
1
1
1
1
1
1
1
1
1
1
1
1
1
1
1
1
1
1
1
1
1
1.00001
1.00001
1.00043
1
1
1
1
1
1
1
1
1
1
1
1
1
1
1
1
1
1
1
1
1
1
1
1.00001
1.00006
1
1
1
1
1
1
1
1
1
1
1
1
1
1
1
1
1
1
1
1
1
1
1
1
1.00003
1
1
1
1
1
1
1
1
1
1
1
1
1
1
1
1
1
1
1
1
1
1
1
1
1
1
1
1
1
1
1
1
1
1
1
1
1
1
1
1
1
1
1
1
1
1
1
1
1
0.999998
1
1
1
1
1
1
1
1
1
1
1
1
1
1
1
1
1
1
1
1
1
1
1
1
1
1
1
1
1
1
1
1
1
1
1
1
1
1
1
1
1
1
1
1
1
1
1
1
1
1
1
1
1
1
1
1
1
1
1
1
1
1
1
1
1
1
1
1
1
1
1
1
1
1
1
1
1
1
1
1
1
1
1
1
1
1
1
1
1
1
1
1
1
1
1
1
1
1
1
1
1
1
1
1
1
1
1
1
1
1
1
1
1
1
1
1
1
1
1
1
1
1
1
1
1
2.71577
3.06401
3.8546
3.28664
3.52142
3.53117
3.32327
2.87392
2.55188
2.45005
2.46032
2.48501
2.49298
2.47562
2.37603
2.21565
2.11346
2.08061
2.0867
2.09624
2.10644
2.11015
2.10532
2.09762
2.08236
2.06658
2.05277
2.04803
2.04451
2.05089
2.06216
2.0962
2.14857
2.23083
2.34682
2.48858
2.65865
2.83052
3.04853
3.24183
3.40411
3.5833
3.75815
3.97232
4.16674
4.30906
4.47308
4.61802
4.7194
4.80486
4.87435
4.91158
4.93466
4.94468
4.94806
4.93609
4.91721
4.89031
4.85767
4.81978
4.77891
4.73535
4.68831
4.63882
4.58777
4.5363
4.48487
4.43369
4.38225
4.33073
4.27886
4.22718
4.17642
4.12678
4.07838
4.03087
3.98425
3.93822
3.89286
3.84801
3.80379
3.76036
3.71791
3.67657
3.63652
3.59754
3.55979
3.52279
3.48674
3.45108
3.41606
3.3812
3.34691
3.31237
3.27832
3.24329
3.20822
3.17054
3.13282
3.11111
4.1211
3.98145
3.55872
3.27875
3.65265
3.66937
3.52639
2.92195
2.45303
2.33116
2.38203
2.46575
2.47847
2.42785
2.31601
2.19867
2.12424
2.09018
2.0946
2.103
2.10858
2.11348
2.10686
2.1045
2.09201
2.08081
2.06238
2.05238
2.04313
2.05062
2.06661
2.09967
2.14878
2.22025
2.3182
2.45022
2.62074
2.79191
3.01898
3.24287
3.43598
3.61819
3.77425
3.96268
4.14309
4.26077
4.43057
4.59602
4.70404
4.78944
4.85971
4.90181
4.92661
4.93705
4.94096
4.92901
4.90876
4.88081
4.84906
4.81279
4.77265
4.73016
4.68328
4.63352
4.58295
4.53204
4.48129
4.43058
4.37938
4.32789
4.27608
4.22457
4.17391
4.12459
4.07648
4.02913
3.98258
3.9366
3.89119
3.84632
3.80208
3.75863
3.71631
3.67512
3.63523
3.59648
3.55896
3.52213
3.48628
3.45074
3.4158
3.38108
3.34672
3.31238
3.27816
3.24345
3.20803
3.16986
3.12993
3.10724
4.96197
4.32076
3.93162
3.58127
3.5958
3.54434
3.18414
2.63847
2.41556
2.4029
2.46467
2.50258
2.50626
2.49406
2.4353
2.27315
2.10246
2.05264
2.04818
2.08263
2.09989
2.10937
2.10111
2.09185
2.07515
2.06236
2.04508
2.05103
2.04239
2.05012
2.05676
2.08703
2.13885
2.21693
2.33994
2.47051
2.64383
2.79347
2.99035
3.18244
3.34168
3.52527
3.71364
3.92563
4.12881
4.26989
4.3976
4.55285
4.66151
4.74968
4.81625
4.86246
4.89258
4.90304
4.90773
4.89865
4.88403
4.86041
4.82998
4.79454
4.75547
4.71476
4.67064
4.62271
4.57285
4.52275
4.47289
4.42323
4.37344
4.32297
4.27131
4.21936
4.16884
4.12006
4.0725
4.0255
3.97925
3.93348
3.88822
3.84348
3.79928
3.75585
3.71361
3.67262
3.63299
3.59453
3.55727
3.52085
3.48519
3.44995
3.41512
3.38055
3.34624
3.31201
3.27773
3.24312
3.2075
3.16898
3.12716
3.10241
5.37972
4.49438
4.02109
3.66419
3.56208
3.52656
3.25431
2.85237
2.57845
2.43806
2.4209
2.47066
2.48204
2.4285
2.28868
2.1334
2.08295
2.07576
2.08667
2.11347
2.11015
2.12092
2.10865
2.10855
2.09026
2.09332
2.05549
2.05956
2.03346
2.04101
2.05666
2.0865
2.12997
2.19082
2.27527
2.39786
2.56854
2.74245
2.94108
3.15913
3.34042
3.50236
3.66168
3.81772
4.00443
4.16231
4.31955
4.47088
4.60235
4.68238
4.75932
4.81393
4.84899
4.87282
4.87799
4.8702
4.85459
4.83084
4.80181
4.77239
4.73802
4.69841
4.65422
4.60645
4.55868
4.5111
4.46314
4.41438
4.36458
4.31382
4.26281
4.21202
4.16223
4.11394
4.06675
4.02016
3.97404
3.9284
3.88325
3.83855
3.79442
3.75116
3.7093
3.66892
3.62992
3.59214
3.55541
3.51951
3.48414
3.44919
3.41449
3.38002
3.34566
3.31142
3.27698
3.24233
3.20663
3.16783
3.12437
3.09735
5.54507
4.74461
4.14256
3.78797
3.65853
3.55058
3.33287
2.89685
2.53535
2.41727
2.42891
2.48513
2.48425
2.44161
2.36659
2.24223
2.14585
2.08714
2.06672
2.08671
2.09939
2.10934
2.10167
2.09323
2.07342
2.06111
2.03585
2.048
2.03514
2.04981
2.04772
2.0701
2.11901
2.18725
2.27737
2.38139
2.51208
2.66989
2.82278
3.00946
3.20137
3.40533
3.59842
3.74272
3.89911
4.03489
4.19617
4.3469
4.49275
4.5941
4.69039
4.74807
4.78969
4.80167
4.81366
4.81332
4.80426
4.79242
4.76701
4.73713
4.70553
4.66773
4.62811
4.5844
4.53856
4.49276
4.44699
4.40036
4.35254
4.30345
4.25313
4.20266
4.15345
4.10585
4.05925
4.01312
3.96742
3.92221
3.87741
3.833
3.78914
3.74622
3.70466
3.66473
3.62631
3.58907
3.55277
3.51725
3.4822
3.44754
3.41301
3.37862
3.34422
3.3099
3.27537
3.24057
3.20473
3.16566
3.1212
3.09251
5.69996
4.93537
4.3623
3.95812
3.76607
3.63413
3.45945
3.06224
2.69889
2.50626
2.47372
2.49048
2.49052
2.4423
2.33586
2.19868
2.11016
2.07758
2.07947
2.10565
2.10985
2.11947
2.10711
2.10684
2.08392
2.08906
2.0539
2.06475
2.03523
2.04769
2.06065
2.08549
2.11609
2.16639
2.22011
2.27707
2.3441
2.45539
2.57413
2.74082
2.91727
3.15137
3.39009
3.58571
3.7614
3.91817
4.06851
4.20493
4.32117
4.44311
4.56914
4.67181
4.73441
4.74988
4.74514
4.74702
4.75131
4.74926
4.73375
4.70221
4.67195
4.63761
4.60198
4.56264
4.51958
4.47511
4.43002
4.38412
4.33663
4.28827
4.23974
4.19113
4.14305
4.09595
4.04956
4.00374
3.95854
3.91396
3.86981
3.82601
3.78248
3.73969
3.6987
3.65969
3.62203
3.58548
3.54972
3.51463
3.47987
3.4454
3.41093
3.37652
3.34201
3.30745
3.27267
3.23763
3.20175
3.1628
3.11797
3.08823
5.81839
5.09263
4.53964
4.14795
3.87983
3.7194
3.54445
3.26175
2.94902
2.65022
2.49987
2.47441
2.47132
2.44839
2.39412
2.28024
2.17711
2.11427
2.08596
2.09084
2.09842
2.10726
2.10153
2.09318
2.08007
2.07151
2.05271
2.06118
2.04808
2.08286
2.10842
2.12849
2.15528
2.192
2.20774
2.22228
2.25458
2.3032
2.37116
2.46415
2.58741
2.75341
2.92546
3.13016
3.36639
3.62635
3.88012
4.09643
4.24158
4.31872
4.4106
4.51154
4.61593
4.67787
4.70584
4.69086
4.68282
4.67454
4.67339
4.66357
4.64072
4.6038
4.56371
4.52838
4.49351
4.45538
4.41276
4.36664
4.31901
4.27197
4.22573
4.17897
4.1317
4.08486
4.03914
3.99447
3.95034
3.90661
3.86317
3.81967
3.77614
3.7336
3.69325
3.65504
3.6181
3.58206
3.5466
3.51165
3.47692
3.44241
3.40793
3.37355
3.33892
3.30404
3.269
3.23377
3.19784
3.15873
3.11359
3.0833
5.89787
5.23954
4.69251
4.29201
4.01715
3.83305
3.63327
3.38604
3.11194
2.84831
2.63358
2.53213
2.50965
2.49123
2.4508
2.34748
2.2158
2.1179
2.07666
2.07456
2.09762
2.12083
2.116
2.11022
2.0839
2.09364
2.06712
2.11051
2.08005
2.14887
2.2497
2.29791
2.31037
2.30396
2.26863
2.23106
2.22065
2.2304
2.2601
2.2931
2.36801
2.45754
2.55899
2.69446
2.86954
3.0797
3.33677
3.67527
4.02418
4.26459
4.37459
4.40031
4.45064
4.53338
4.62287
4.6435
4.63757
4.6224
4.61289
4.60628
4.59238
4.56998
4.53953
4.50709
4.46795
4.42894
4.38929
4.34736
4.3028
4.25573
4.20846
4.16261
4.11764
4.07255
4.02739
3.9831
3.94004
3.89757
3.85509
3.81214
3.76875
3.72641
3.68676
3.64957
3.61357
3.57824
3.54326
3.50859
3.47402
3.43956
3.40513
3.3707
3.33589
3.30068
3.26532
3.22984
3.19374
3.15455
3.1092
3.07851
5.94681
5.34761
4.83211
4.42499
4.15316
3.93533
3.75593
3.5298
3.27984
3.02114
2.79631
2.63118
2.55245
2.52375
2.47702
2.41717
2.30593
2.19039
2.11856
2.08921
2.08857
2.10111
2.11115
2.11412
2.10863
2.09883
2.11406
2.11627
2.25931
2.35255
2.55037
2.60489
2.60458
2.53116
2.43296
2.34351
2.28994
2.26551
2.25124
2.25926
2.27432
2.30653
2.34493
2.41171
2.5021
2.6187
2.80402
3.06506
3.36992
3.78954
4.21882
4.42766
4.42023
4.428
4.45101
4.5151
4.56415
4.58773
4.57801
4.55914
4.53335
4.52332
4.50311
4.47991
4.44449
4.40312
4.36339
4.32337
4.28175
4.23747
4.19246
4.1481
4.10332
4.05891
4.01514
3.97234
3.93018
3.88844
3.84678
3.80462
3.76189
3.72002
3.68109
3.64479
3.60947
3.5746
3.53983
3.50521
3.47062
3.43606
3.40138
3.36647
3.33121
3.29571
3.26012
3.22443
3.18823
3.1493
3.10392
3.07284
6.01022
5.44525
4.95849
4.56076
4.27855
4.03655
3.85901
3.65242
3.41471
3.16732
2.93059
2.73705
2.61228
2.5499
2.50311
2.45098
2.36494
2.27985
2.19037
2.12754
2.10247
2.09986
2.1151
2.11092
2.12957
2.11456
2.17844
2.19552
2.49356
2.76844
3.07421
3.0798
2.98699
2.80868
2.64283
2.50777
2.41465
2.35182
2.30153
2.27037
2.25551
2.25947
2.26397
2.28842
2.31579
2.36868
2.46693
2.5858
2.76629
3.08367
3.48671
3.99394
4.35965
4.47166
4.41974
4.41235
4.4436
4.4976
4.49841
4.49474
4.48129
4.47402
4.46105
4.4412
4.41752
4.3815
4.3405
4.29938
4.25824
4.21739
4.17596
4.1336
4.08937
4.0449
4.00202
3.96083
3.9201
3.87948
3.83839
3.79593
3.75283
3.71177
3.67443
3.63933
3.60482
3.57047
3.53602
3.5015
3.46688
3.43213
3.39727
3.3622
3.32669
3.29092
3.25509
3.21921
3.18282
3.14356
3.09769
3.06586
6.06741
5.53826
5.06633
4.68044
4.37706
4.13556
3.94857
3.74918
3.52311
3.29359
3.06232
2.85784
2.69917
2.60148
2.54787
2.48886
2.42261
2.34912
2.26427
2.19661
2.14085
2.11356
2.11149
2.11573
2.1274
2.16359
2.2377
2.45725
2.94605
3.53755
3.6287
3.54998
3.36214
3.13384
2.93129
2.77024
2.645
2.54152
2.45626
2.38815
2.33258
2.28787
2.26111
2.2533
2.25089
2.26348
2.28531
2.32101
2.41161
2.56923
2.78938
3.14624
3.63816
4.18574
4.45705
4.45226
4.3996
4.37464
4.38928
4.41943
4.44194
4.43573
4.42439
4.40198
4.37974
4.35209
4.31846
4.28109
4.24078
4.19894
4.15756
4.11753
4.07561
4.03114
3.9883
3.9479
3.90848
3.8692
3.82906
3.78734
3.74481
3.70471
3.66853
3.63424
3.60011
3.56593
3.53151
3.4969
3.46212
3.4272
3.39207
3.35662
3.32082
3.28486
3.24887
3.21284
3.17627
3.13678
3.09039
3.05804
6.1154
5.62101
5.1645
4.77499
4.46431
4.22692
4.01782
3.82919
3.63038
3.41166
3.19041
2.98105
2.8051
2.67731
2.59887
2.54006
2.49011
2.4113
2.33656
2.2644
2.19503
2.14086
2.11937
2.12324
2.14746
2.21324
2.37675
2.82137
3.55109
4.24732
4.16785
3.9941
3.74657
3.50223
3.29386
3.11429
2.95002
2.81006
2.69155
2.58793
2.49598
2.4204
2.35401
2.30021
2.26269
2.2346
2.21523
2.22487
2.25603
2.29678
2.38551
2.56958
2.858
3.27621
3.86064
4.33508
4.48508
4.37858
4.32205
4.33194
4.36388
4.38516
4.38077
4.36172
4.33912
4.31354
4.28519
4.25278
4.21772
4.18022
4.13847
4.09499
4.05354
4.01322
3.9737
3.93494
3.89625
3.85736
3.81773
3.77783
3.7376
3.69909
3.66329
3.62884
3.59452
3.5602
3.52566
3.491
3.45618
3.42126
3.38621
3.35092
3.3153
3.27947
3.24339
3.20718
3.17031
3.13032
3.08299
3.04987
6.14264
5.6801
5.24905
4.86195
4.54859
4.30367
4.08857
3.91047
3.72025
3.51035
3.30759
3.09568
2.91568
2.768
2.66392
2.59309
2.52915
2.46663
2.40785
2.32479
2.2458
2.17667
2.13787
2.14608
2.19367
2.32814
2.68043
3.42851
4.29082
4.5976
4.50987
4.30758
4.05463
3.81927
3.6057
3.40465
3.2229
3.06689
2.92694
2.79993
2.69022
2.59537
2.50783
2.43044
2.3583
2.2879
2.23815
2.21403
2.20722
2.20036
2.23039
2.27886
2.38891
2.60225
2.97827
3.48057
4.10167
4.42449
4.42694
4.33321
4.27896
4.27437
4.29878
4.30683
4.29652
4.27846
4.25146
4.22413
4.19297
4.15974
4.12247
4.07937
4.03468
3.9948
3.95824
3.92279
3.88632
3.84811
3.80819
3.76789
3.72917
3.69253
3.65714
3.62236
3.58763
3.55294
3.5182
3.48344
3.44872
3.414
3.37905
3.34378
3.30812
3.27224
3.23616
3.19989
3.16272
3.12207
3.07341
3.0391
6.18872
5.74375
5.3307
4.95214
4.63431
4.37705
4.1629
3.98447
3.79499
3.60665
3.4181
3.21699
3.02405
2.86862
2.74351
2.64932
2.58181
2.52533
2.45784
2.37599
2.30451
2.22352
2.19168
2.2073
2.30234
2.58553
3.24182
4.2103
4.81705
4.79796
4.68069
4.48988
4.2842
4.08014
3.87509
3.67491
3.48981
3.31881
3.16369
3.02298
2.8985
2.78736
2.68578
2.58801
2.49162
2.41281
2.34783
2.28511
2.23484
2.20109
2.18072
2.16909
2.19388
2.27846
2.4238
2.68907
3.11163
3.70452
4.25593
4.44792
4.36582
4.22578
4.19202
4.21058
4.24613
4.23926
4.21842
4.19087
4.16077
4.13009
4.09845
4.0617
4.01916
3.97571
3.9373
3.90249
3.86826
3.83356
3.7982
3.76128
3.72283
3.68504
3.64897
3.61384
3.57881
3.54383
3.50898
3.47437
3.43991
3.40556
3.37112
3.33631
3.30099
3.26509
3.22867
3.19178
3.15382
3.11231
3.06249
3.0271
6.22128
5.79445
5.39616
5.02334
4.70489
4.4544
4.2396
4.05284
3.8762
3.70063
3.51222
3.32796
3.13251
2.96487
2.8314
2.72326
2.63708
2.56966
2.49876
2.43704
2.35216
2.28658
2.26793
2.32334
2.53438
3.10423
4.03777
4.78407
4.95179
4.90268
4.79398
4.65196
4.48722
4.30436
4.10792
3.91151
3.72218
3.54317
3.37796
3.22602
3.08941
2.96592
2.84937
2.74226
2.64652
2.56155
2.48042
2.40031
2.33145
2.27039
2.21653
2.17841
2.14449
2.15547
2.18373
2.28115
2.48672
2.80707
3.28303
3.92529
4.31032
4.36869
4.2458
4.14273
4.12293
4.14118
4.15937
4.16231
4.13853
4.1014
4.06355
4.02877
3.99689
3.96226
3.92465
3.88745
3.85224
3.81808
3.78414
3.7504
3.71461
3.67696
3.6397
3.60382
3.56887
3.53425
3.49976
3.46546
3.43133
3.3972
3.36283
3.32791
3.29237
3.25613
3.21928
3.18169
3.14282
3.10022
3.04911
3.01253
6.27046
5.85821
5.46773
5.10194
4.77535
4.52736
4.31537
4.1245
3.95799
3.78651
3.60446
3.42419
3.24137
3.06295
2.92077
2.80286
2.69663
2.61874
2.55127
2.48297
2.40654
2.37367
2.39926
2.55021
3.0146
3.88385
4.72735
5.00798
4.98727
4.93663
4.86036
4.75821
4.62708
4.47433
4.30098
4.11646
3.9326
3.75322
3.58231
3.42174
3.27639
3.1426
3.02186
2.91219
2.8073
2.70942
2.61303
2.52834
2.45627
2.3844
2.31025
2.23691
2.17446
2.1364
2.12551
2.14678
2.18838
2.30368
2.55679
2.94331
3.45944
4.07136
4.34755
4.30712
4.14934
4.08871
4.08671
4.10434
4.10081
4.07935
4.04692
4.00511
3.96424
3.9301
3.90131
3.87212
3.84108
3.80673
3.77146
3.73565
3.70031
3.66497
3.62919
3.59324
3.55777
3.52306
3.48894
3.45527
3.42178
3.38807
3.3538
3.3186
3.28257
3.24577
3.20816
3.16973
3.12987
3.0864
3.03424
2.99644
6.29312
5.91331
5.53356
5.18189
4.85255
4.60156
4.39252
4.19432
4.02872
3.86736
3.70175
3.51924
3.33541
3.1615
3.00821
2.87798
2.76714
2.67234
2.5864
2.51776
2.48267
2.49739
2.62403
3.01406
3.79886
4.6864
5.05295
5.03458
4.99941
4.96152
4.91141
4.83687
4.73334
4.59958
4.44863
4.28382
4.11194
3.93728
3.76707
3.60332
3.44937
3.31135
3.18882
3.0675
2.95267
2.84734
2.74426
2.66379
2.57252
2.48554
2.40108
2.32525
2.25846
2.19581
2.14749
2.12083
2.09046
2.13282
2.20995
2.35757
2.64288
3.06998
3.65476
4.16224
4.33477
4.21335
4.0621
3.98939
4.00183
4.02546
4.01912
3.99042
3.95205
3.90409
3.86765
3.84329
3.82129
3.79502
3.76377
3.72748
3.6881
3.65031
3.61537
3.58057
3.54568
3.51149
3.47778
3.44447
3.41123
3.37758
3.34325
3.30777
3.27119
3.23353
3.19465
3.15479
3.11365
3.0692
3.0162
2.97732
6.34739
5.98547
5.61839
5.27413
4.93919
4.67472
4.46826
4.26715
4.09329
3.94271
3.78877
3.61685
3.43012
3.25063
3.09122
2.95387
2.8394
2.72168
2.62734
2.58752
2.59344
2.70058
3.04519
3.77098
4.71028
5.13853
5.10892
5.05903
5.01899
4.98671
4.94721
4.88818
4.80458
4.69474
4.56398
4.41863
4.26298
4.09989
3.93646
3.77304
3.61845
3.47926
3.34418
3.21527
3.09291
2.97541
2.87894
2.77683
2.67395
2.58156
2.49782
2.41498
2.3429
2.27517
2.20971
2.1528
2.10938
2.08807
2.08638
2.11325
2.22007
2.41163
2.7416
3.23095
3.88893
4.22687
4.21827
4.08168
3.97078
3.92842
3.93579
3.93337
3.91935
3.89075
3.85631
3.82223
3.79426
3.77051
3.74473
3.71328
3.6774
3.63749
3.60017
3.56642
3.53314
3.49994
3.4667
3.43359
3.40049
3.36674
3.33201
3.29581
3.25845
3.22016
3.18033
3.1392
3.09654
3.05046
2.99636
2.95659
6.37056
6.05581
5.71471
5.38009
5.04933
4.75454
4.5466
4.34541
4.15771
4.00949
3.8618
3.69661
3.52053
3.34168
3.17937
3.03271
2.90228
2.76404
2.70415
2.69489
2.78271
3.08601
3.77886
4.78115
5.26943
5.23396
5.16453
5.09547
5.04882
5.01338
4.97342
4.92243
4.85361
4.76597
4.65444
4.52471
4.38073
4.22764
4.06761
3.91088
3.76774
3.62061
3.47546
3.33647
3.20959
3.09581
2.98599
2.87415
2.77537
2.67892
2.58774
2.50296
2.42361
2.34591
2.2768
2.21346
2.15881
2.10907
2.08074
2.05422
2.06277
2.10649
2.23385
2.49773
2.85892
3.39158
3.96188
4.20966
4.1424
3.9802
3.87714
3.84135
3.84774
3.84652
3.83561
3.81583
3.78471
3.75072
3.71922
3.68999
3.66106
3.62727
3.58884
3.55143
3.51764
3.48619
3.45406
3.42111
3.38808
3.35396
3.31825
3.28121
3.2427
3.20326
3.16221
3.1199
3.07627
3.02921
2.97393
2.93305
6.40485
6.11363
5.79263
5.47344
5.15926
4.84204
4.61508
4.41915
4.21865
4.06422
3.92429
3.76889
3.59589
3.42332
3.2645
3.12186
2.971
2.85483
2.80782
2.87007
3.12993
3.78286
4.80615
5.4446
5.42638
5.34451
5.23828
5.15126
5.09246
5.04758
5.00209
4.95126
4.88989
4.8137
4.72114
4.6098
4.48083
4.34065
4.19004
4.03951
3.88894
3.73449
3.58903
3.45175
3.32754
3.20626
3.08594
2.98091
2.88109
2.78474
2.69428
2.60892
2.52327
2.44486
2.37523
2.3079
2.24664
2.1845
2.12567
2.06776
2.02345
2.01375
2.05281
2.11466
2.26631
2.55996
2.9968
3.61885
4.04084
4.11194
3.99575
3.85651
3.78939
3.78239
3.78371
3.78374
3.77678
3.75004
3.71168
3.6725
3.63713
3.60572
3.57288
3.53886
3.50468
3.47085
3.43851
3.40578
3.37304
3.33984
3.30381
3.26565
3.22588
3.18477
3.14247
3.09887
3.05406
3.00599
2.94963
2.90787
6.43182
6.18029
5.88728
5.56811
5.25875
4.94674
4.68151
4.48687
4.28517
4.10816
3.97346
3.83294
3.66694
3.4875
3.33015
3.19362
3.05638
2.98766
3.00309
3.20315
3.80642
4.81166
5.6084
5.64862
5.56292
5.4309
5.30995
5.22236
5.15256
5.09029
5.03259
4.97549
4.9148
4.84588
4.76519
4.67003
4.56012
4.43634
4.30197
4.15754
4.00433
3.85903
3.71799
3.58184
3.44815
3.31617
3.19802
3.08738
2.98291
2.88067
2.78348
2.69159
2.60568
2.52585
2.45027
2.38124
2.3119
2.25112
2.18713
2.12496
2.06098
2.0187
1.99596
1.9771
2.02158
2.13117
2.33595
2.6777
3.1626
3.75507
4.02076
3.98642
3.85355
3.76076
3.71875
3.71845
3.72144
3.71945
3.70277
3.66758
3.62452
3.58445
3.55043
3.5211
3.49099
3.45736
3.42318
3.38881
3.35466
3.32141
3.28551
3.2465
3.20682
3.16553
3.12155
3.07569
3.0293
2.97978
2.92229
2.88019
6.36544
6.20442
5.94179
5.65541
5.33616
5.0555
4.76881
4.54955
4.34954
4.1635
4.01991
3.88255
3.7343
3.56262
3.39146
3.25741
3.17417
3.17708
3.32896
3.85217
4.82848
5.77637
5.96534
5.80926
5.62923
5.49647
5.40364
5.31566
5.22705
5.14626
5.07423
5.00724
4.94115
4.87155
4.79572
4.71012
4.61371
4.50463
4.38417
4.2537
4.11637
3.97604
3.83368
3.69457
3.55962
3.43202
3.30906
3.19133
3.08059
2.9757
2.87478
2.78005
2.69046
2.60959
2.53188
2.459
2.39114
2.32921
2.26717
2.20486
2.13261
2.06348
2.0027
1.97485
1.94174
1.96671
2.03323
2.17923
2.43688
2.80207
3.34646
3.83008
3.96613
3.88544
3.77262
3.68605
3.64679
3.65394
3.65988
3.65153
3.62108
3.57902
3.5381
3.50133
3.46888
3.43628
3.40219
3.36832
3.33323
3.29912
3.26441
3.22396
3.18177
3.14005
3.09577
3.0485
3.00071
2.95049
2.89273
2.85084
5.9307
6.29958
6.03987
5.72882
5.40994
5.1333
4.85894
4.61274
4.41118
4.21711
4.07183
3.94378
3.80965
3.65155
3.47619
3.37112
3.35678
3.49199
3.95635
4.89777
5.94535
6.25287
6.07
5.85346
5.7054
5.60417
5.50327
5.39794
5.29562
5.20159
5.11712
5.03959
4.96617
4.89297
4.81742
4.73646
4.64862
4.55147
4.44489
4.32783
4.20286
4.06951
3.93477
3.79943
3.66713
3.53833
3.41319
3.29376
3.17994
3.07049
2.96781
2.86997
2.77821
2.6904
2.61487
2.5443
2.47349
2.4031
2.34325
2.2752
2.19344
2.11411
2.05244
2.00855
1.96536
1.94393
1.9452
1.97668
2.05528
2.22036
2.5296
2.96616
3.55226
3.86136
3.876
3.78237
3.67763
3.61848
3.59613
3.60087
3.59441
3.56282
3.52699
3.48575
3.44466
3.40725
3.37317
3.34367
3.31302
3.27629
3.24
3.20024
3.15588
3.11204
3.06768
3.02036
2.97143
2.92096
2.86365
2.82178
4.64059
5.87237
5.8924
5.68953
5.45428
5.19946
4.94081
4.68025
4.48207
4.29013
4.12475
4.00825
3.88191
3.72062
3.61089
3.56595
3.67919
4.09688
4.99704
6.13633
6.59638
6.37482
6.11504
5.94326
5.83063
5.71589
5.60094
5.48874
5.38021
5.27629
5.17814
5.08645
5.00084
4.9193
4.83913
4.75741
4.67256
4.5827
4.48515
4.38021
4.26637
4.14655
4.02117
3.89288
3.76394
3.63614
3.51135
3.38989
3.27108
3.15707
3.049
2.94802
2.8528
2.76316
2.68232
2.61274
2.54308
2.47443
2.40438
2.32967
2.25455
2.18351
2.12746
2.07725
2.03061
1.98099
1.93874
1.90711
1.91317
1.97705
2.09908
2.31963
2.64213
3.12627
3.63006
3.83023
3.79162
3.684
3.60017
3.54937
3.53055
3.52786
3.5069
3.46896
3.42261
3.37699
3.33958
3.3101
3.28447
3.25218
3.2115
3.17011
3.12386
3.07748
3.03283
2.98755
2.93981
2.88953
2.83229
2.79065
3.36484
5.18908
5.9291
5.777
5.55557
5.30587
5.05661
4.79576
4.57807
4.39859
4.21882
4.08139
3.95089
3.83422
3.79346
3.89173
4.29852
5.16837
6.39796
7.00059
6.72613
6.40725
6.20119
6.07378
5.94665
5.81933
5.69622
5.57675
5.45868
5.34367
5.23409
5.13052
5.03313
4.94276
4.85666
4.77246
4.68752
4.59993
4.50847
4.41164
4.30884
4.2
4.08535
3.9669
3.84531
3.72327
3.60159
3.48111
3.36342
3.2493
3.13877
3.03561
2.94294
2.85931
2.77511
2.69591
2.62273
2.54929
2.47263
2.39902
2.3255
2.25484
2.19068
2.12908
2.07232
2.01753
1.96956
1.9244
1.90221
1.90551
1.93182
1.9968
2.13678
2.41026
2.7854
3.32169
3.67218
3.7419
3.68354
3.58668
3.51049
3.47335
3.45451
3.43578
3.39828
3.35631
3.31705
3.28066
3.24849
3.21923
3.18017
3.13671
3.09043
3.04345
2.9988
2.95392
2.90708
2.858
2.80209
2.76081
2.4082
4.15703
5.57498
5.84845
5.63906
5.39286
5.16186
4.91197
4.66177
4.48207
4.29749
4.14588
4.04168
4.02259
4.11132
4.52697
5.42642
6.74613
7.42306
7.11482
6.75799
6.51969
6.37055
6.22812
6.08271
5.94126
5.80575
5.67534
5.54853
5.42503
5.30554
5.19104
5.08188
4.97879
4.88232
4.79087
4.70219
4.61376
4.52408
4.43179
4.33593
4.23602
4.13126
4.02293
3.91036
3.79594
3.67931
3.56241
3.44479
3.3287
3.21503
3.10703
3.00944
2.92004
2.83462
2.74906
2.67103
2.59716
2.52663
2.45066
2.37386
2.30216
2.23535
2.17388
2.1198
2.0702
2.0227
1.9764
1.92852
1.89387
1.87574
1.87598
1.92978
2.01986
2.2153
2.51132
2.94861
3.45611
3.67154
3.66056
3.57337
3.47363
3.4091
3.37368
3.35649
3.32882
3.29415
3.25804
3.21927
3.17968
3.14055
3.09697
3.0524
3.00634
2.96327
2.91937
2.87338
2.82431
2.76894
2.72783
1.56711
2.80733
4.52154
5.58738
5.61684
5.45053
5.26607
5.03939
4.77925
4.55598
4.36564
4.23944
4.21563
4.33563
4.76418
5.70556
7.1175
7.85671
7.53833
7.14757
6.87682
6.69962
6.5338
6.36609
6.2021
6.04731
5.90151
5.76192
5.62722
5.4964
5.36927
5.24613
5.12747
5.01416
4.90751
4.8078
4.71339
4.622
4.53102
4.43971
4.34693
4.25268
4.15613
4.05686
3.95426
3.84852
3.73955
3.62849
3.51489
3.40159
3.29074
3.18571
3.08579
2.99028
2.90211
2.81796
2.73864
2.66121
2.58525
2.50694
2.4298
2.35682
2.28795
2.2301
2.17744
2.129
2.08071
2.02986
1.98061
1.93561
1.89629
1.87095
1.85303
1.85936
1.91269
2.04408
2.29475
2.65762
3.14121
3.49657
3.58969
3.54498
3.44304
3.34914
3.29616
3.2692
3.24145
3.21484
3.1827
3.13935
3.09505
3.05041
3.00837
2.96795
2.92804
2.88743
2.8433
2.79315
2.73603
2.69392
1.11218
1.82988
3.3596
4.98061
5.65265
5.55569
5.36287
5.15733
4.91403
4.62959
4.48376
4.43152
4.56569
5.03215
6.02606
7.53248
8.33599
8.00041
7.56819
7.25996
7.0672
6.88238
6.69732
6.51289
6.3363
6.16979
6.01191
5.86081
5.71588
5.57639
5.44198
5.3116
5.18522
5.06289
4.9458
4.83537
4.73167
4.63352
4.53884
4.44646
4.35544
4.26484
4.17404
4.08171
3.98735
3.88968
3.78867
3.68417
3.57686
3.46717
3.35988
3.25633
3.15758
3.06316
2.9731
2.88735
2.80215
2.71843
2.63668
2.55844
2.48154
2.40568
2.33709
2.27672
2.22332
2.1726
2.12511
2.07866
2.03463
1.99026
1.94392
1.89717
1.8539
1.8297
1.80686
1.85568
1.94112
2.10666
2.38717
2.78651
3.24789
3.47107
3.46843
3.39499
3.29295
3.22035
3.17823
3.15514
3.13201
3.09301
3.0455
3.00344
2.96643
2.93005
2.89088
2.85037
2.80784
2.75859
2.69987
2.65582
1.0395
1.31361
2.43388
3.97676
5.24928
5.60318
5.4528
5.23455
4.97362
4.75218
4.6615
4.78543
5.29912
6.37165
7.98336
8.8159
8.45038
7.98196
7.63417
7.42134
7.23449
7.04056
6.84055
6.64419
6.45741
6.28098
6.11276
5.95172
5.79773
5.65005
5.50753
5.36952
5.23566
5.10579
4.98047
4.86103
4.74876
4.64289
4.54166
4.44499
4.35332
4.26506
4.17774
4.09016
4.00128
3.91048
3.81606
3.71842
3.61709
3.51405
3.41086
3.30921
3.21091
3.11698
3.02594
2.93768
2.85152
2.76788
2.68684
2.60888
2.53388
2.46188
2.39254
2.32855
2.27207
2.22111
2.17354
2.1261
2.07954
2.0333
1.98767
1.94394
1.90206
1.85496
1.81797
1.79572
1.79905
1.84389
1.93892
2.14597
2.46313
2.91979
3.24105
3.35767
3.32189
3.23137
3.14736
3.09518
3.06208
3.02966
2.99403
2.96296
2.93596
2.90126
2.85416
2.80811
2.7639
2.7188
2.66231
2.61717
1.00998
1.05423
1.51008
2.60312
4.10295
5.15557
5.32838
5.18684
4.98732
4.90604
5.03305
5.62949
6.81835
8.54841
9.3977
8.95647
8.42624
8.048
7.82531
7.64327
7.4469
7.23264
7.01382
6.80463
6.60459
6.41269
6.22905
6.05415
5.88793
5.72983
5.57876
5.43339
5.29291
5.15675
5.02438
4.89733
4.7766
4.66249
4.55286
4.44948
4.35435
4.26664
4.18181
4.09714
4.01271
3.92669
3.83814
3.74624
3.65169
3.5557
3.4602
3.36547
3.27276
3.1816
3.09208
3.00388
2.91736
2.83264
2.75009
2.67099
2.59442
2.52125
2.45177
2.38753
2.32909
2.27571
2.22463
2.17445
2.12645
2.07873
2.03462
1.98891
1.94402
1.89676
1.85246
1.80527
1.77296
1.75299
1.76146
1.81574
1.96286
2.20348
2.59202
2.99793
3.20547
3.2178
3.16803
3.08663
3.01306
2.9689
2.94652
2.91861
2.89028
2.85935
2.81271
2.76089
2.71411