/*--------------------------------*- C++ -*----------------------------------*\
| =========                 |                                                 |
| \\      /  F ield         | OpenFOAM: The Open Source CFD Toolbox           |
|  \\    /   O peration     | Version:  v2106                                 |
|   \\  /    A nd           | Website:  www.openfoam.com                      |
|    \\/     M anipulation  |                                                 |
\*---------------------------------------------------------------------------*/
FoamFile
{
    version     2.0;
    format      ascii;
    arch        "LSB;label=32;scalar=64";
    class       surfaceScalarField;
    location    "11";
    object      phi;
}
// * * * * * * * * * * * * * * * * * * * * * * * * * * * * * * * * * * * * * //

dimensions      [1 0 -1 0 0 0 0];

oriented        oriented;

internalField   nonuniform List<scalar> 
10325
(
0.0084507
-4.03865e-17
0.0084507
5.62159e-17
0.0084507
6.62529e-16
0.0084507
3.65558e-15
0.0084507
5.34991e-14
0.0084507
3.1077e-13
0.0084507
4.28101e-12
0.0084507
2.71823e-11
0.00845067
3.36761e-10
0.00845039
2.43113e-09
0.00844789
2.59594e-08
0.0084262
2.22233e-07
0.00824612
1.98197e-06
0.00739232
2.21154e-05
0.00640297
6.94546e-05
0.00598256
0.00107678
0.00669403
0.000580274
0.00609121
0.000602135
0.00535448
0.000687308
0.00465332
0.000724674
0.00387665
0.000777541
0.00304961
0.000829274
0.0021556
0.000901555
0.00115378
0.00101205
0.00116072
0.0084507
-5.7544e-17
0.0084507
7.89299e-17
0.0084507
1.21469e-15
0.0084507
4.30824e-15
0.0084507
9.86861e-14
0.0084507
3.53018e-13
0.0084507
7.90767e-12
0.0084507
3.0942e-11
0.00845067
6.17627e-10
0.00845041
2.9659e-09
0.00844805
4.654e-08
0.00842746
3.07528e-07
0.00825766
3.40378e-06
0.00742437
3.63935e-05
0.00646463
8.88622e-05
0.00607598
0.00201653
0.00686394
0.00119674
0.00622037
0.00124593
0.005455
0.00140099
0.00474275
0.00146574
0.00396405
0.00155727
0.00311532
0.00167924
0.00216448
0.00186145
0.00110951
0.00207755
0.00227747
0.0084507
-5.2123e-17
0.0084507
7.92281e-17
0.0084507
1.77449e-15
0.0084507
1.30568e-15
0.0084507
1.48962e-13
0.0084507
4.26549e-14
0.0084507
1.19756e-11
0.0084507
-5.19461e-13
0.00845067
9.26944e-10
0.00845043
8.99929e-10
0.00844827
6.89411e-08
0.0084292
2.41251e-07
0.00827303
4.74977e-06
0.00746489
4.69633e-05
0.00650075
9.6115e-05
0.00606205
0.00278242
0.00697043
0.00191886
0.00632362
0.00189673
0.00557734
0.0020986
0.00486947
0.00220554
0.00404788
0.00238364
0.00312809
0.00260545
0.0021445
0.00285993
0.00109405
0.00314435
0.00338563
0.0084507
-5.94143e-17
0.0084507
9.50032e-17
0.0084507
2.2089e-15
0.0084507
-3.372e-15
0.0084507
1.96581e-13
0.0084507
-2.42523e-13
0.0084507
1.68053e-11
0.0084507
-5.90796e-11
0.00845068
1.33696e-09
0.00845046
-8.48046e-09
0.00844855
9.24581e-08
0.00843154
-1.62075e-07
0.00829327
6.02355e-06
0.00752025
5.48344e-05
0.00652951
0.000117213
0.00603135
0.00323311
0.00708734
0.00282637
0.00643388
0.0025499
0.00567471
0.00280305
0.0049124
0.00299889
0.00406794
0.00323108
0.00316896
0.00350919
0.00220928
0.00383101
0.00113843
0.00422798
0.00453409
0.0084507
-6.83861e-17
0.0084507
1.10101e-16
0.0084507
9.62609e-16
0.0084507
-2.31328e-14
0.0084507
2.97498e-13
0.0084507
-3.20517e-13
0.0084507
2.16988e-11
0.0084507
-2.46663e-11
0.00845068
1.74928e-09
0.00845048
-9.78141e-09
0.00844885
1.34538e-07
0.00843434
-1.30121e-06
0.00831688
7.05055e-06
0.00759148
5.9574e-05
0.00657651
0.000146812
0.00605307
0.00342334
0.0071981
0.00389032
0.00651867
0.00322709
0.00573828
0.00353481
0.00501002
0.00377718
0.00424378
0.00401069
0.00334107
0.0044242
0.0023448
0.00484782
0.00121148
0.00538122
0.00576355
0.0084507
-1.28153e-16
0.0084507
1.73798e-16
0.0084507
-5.22314e-15
0.0084507
-3.08726e-14
0.0084507
1.66324e-13
0.0084507
-9.66639e-13
0.0084507
2.84186e-11
0.0084507
4.28966e-11
0.00845069
1.88513e-09
0.00845052
1.4853e-09
0.0084492
1.37289e-07
0.00843623
-7.5652e-07
0.00834014
6.83508e-06
0.00767823
5.79322e-05
0.00667112
0.000146622
0.00630111
0.00330313
0.00743534
0.00505271
0.0067004
0.00395554
0.00591501
0.00427102
0.00514892
0.00459115
0.00437425
0.00479361
0.00346224
0.00534537
0.00244787
0.00587814
0.00128028
0.00657225
0.00706993
0.0084507
-8.20199e-17
0.0084507
5.17463e-16
0.0084507
6.83915e-16
0.0084507
3.80597e-14
0.0084507
-5.47086e-13
0.0084507
-1.23327e-12
0.0084507
2.25254e-11
0.0084507
2.20702e-11
0.00845069
1.24682e-09
0.00845056
4.86435e-09
0.00844975
7.86866e-08
0.00843857
5.13417e-07
0.0083644
5.31554e-06
0.00778194
4.90129e-05
0.00676775
0.000143898
0.00666717
0.00269389
0.00799224
0.0061663
0.00714263
0.00480748
0.00629455
0.00507394
0.00549203
0.00545895
0.00474247
0.0055629
0.00386463
0.00623351
0.0027289
0.00706204
0.00149855
0.0078285
0.00860376
0.0084507
7.7412e-17
0.0084507
-4.4989e-16
0.0084507
3.12733e-15
0.0084507
3.8509e-14
0.0084507
4.80447e-14
0.0084507
1.57843e-12
0.0084507
-5.49086e-12
0.0084507
1.07342e-11
0.0084507
7.55095e-10
0.00845057
5.02001e-09
0.00845
5.84589e-08
0.00844082
4.67689e-07
0.00838139
4.64414e-06
0.00786195
4.32795e-05
0.00679479
0.000205758
0.00667471
0.00204493
0.00843452
0.00687069
0.00758838
0.00565751
0.00679314
0.00582389
0.00596854
0.00634725
0.00514898
0.00643361
0.00409268
0.00728581
0.00297436
0.00819556
0.00172236
0.00913845
0.0104088
0.0084507
1.17771e-16
0.0084507
-1.17552e-15
0.0084507
-1.02671e-15
0.0084507
2.92047e-14
0.0084507
1.07697e-13
0.0084507
1.99711e-12
0.0084507
-3.24714e-11
0.0084507
9.6151e-12
0.0084507
5.23817e-10
0.00845059
5.09517e-09
0.00845019
4.66514e-08
0.00844274
4.26579e-07
0.00839783
3.9369e-06
0.00796081
3.63943e-05
0.00693124
0.000235407
0.00660614
0.00157974
0.00856889
0.0072692
0.00793963
0.00628883
0.00723794
0.00649025
0.00653362
0.00709265
0.0057004
0.00733116
0.00481514
0.00824368
0.00379015
0.00926708
0.00252366
0.0104575
0.013105
0.0084507
2.49095e-17
0.0084507
1.25908e-15
0.0084507
7.27641e-15
0.0084507
-3.81734e-15
0.0084507
3.18505e-13
0.0084507
1.46925e-12
0.0084507
2.80759e-11
0.0084507
1.93484e-10
0.0084507
-2.8724e-14
0.00845059
8.25811e-09
0.00845039
2.49337e-08
0.00844357
5.50622e-07
0.00841153
3.13836e-06
0.00809991
-5.10774e-05
0.00714403
0.000257465
0.006588
0.00131401
0.0085269
0.00760978
0.0082392
0.00657703
0.00777067
0.00695933
0.00711707
0.00779102
0.00629863
0.00818039
0.00543965
0.00914057
0.0044112
0.0103494
0.00271583
0.0121856
0.0163396
0.0084507
8.04749e-17
0.0084507
4.0991e-16
0.0084507
7.27025e-15
0.0084507
-2.01811e-15
0.0084507
3.40082e-13
0.0084507
2.57377e-12
0.0084507
8.16976e-12
0.0084507
1.7419e-10
0.0084507
-9.70005e-11
0.00845064
7.57471e-09
0.00845039
1.77166e-08
0.0084463
4.95887e-07
0.00841951
2.65106e-06
0.00814747
-5.47849e-05
0.00723545
0.000247016
0.0065631
0.00111856
0.00825178
0.00764198
0.00839143
0.00689188
0.00817367
0.00723901
0.0076663
0.00828426
0.00699259
0.00891443
0.00630888
0.00989459
0.00595298
0.0109084
0.00584743
0.0126721
0.0139049
0.00909758
0.0084507
-7.82523e-17
0.0084507
2.30583e-16
0.0084507
2.24416e-15
0.0084507
1.65574e-14
0.0084507
2.27471e-13
0.0084507
3.4252e-13
0.0084507
3.6891e-12
0.0084507
3.04068e-11
0.0084507
1.95696e-10
0.00845069
2.67736e-09
0.00845037
1.20253e-08
0.00844894
2.52006e-07
0.00842764
6.8129e-07
0.00820612
2.07181e-05
0.00735537
0.00019513
0.00662479
0.000922642
0.00765026
0.00760309
0.00818657
0.00743958
0.00810559
0.00737305
0.00804413
0.00834612
0.00766622
0.00930256
0.00733148
0.0102482
0.00749946
0.0107944
0.00801627
0.011941
0.0123639
0.0103939
0.0084507
-1.11185e-16
0.0084507
8.9799e-17
0.0084507
-4.41812e-18
0.0084507
3.12792e-17
0.0084507
9.73298e-14
0.0084507
1.83111e-14
0.0084507
3.3802e-12
0.0084507
1.39373e-11
0.0084507
1.10955e-10
0.00845068
2.65177e-09
0.0084505
6.01015e-09
0.00844902
2.05992e-07
0.00843524
2.04666e-08
0.00833369
1.34322e-05
0.00768842
0.000129805
0.00690322
0.000654715
0.0076185
0.00673511
0.00852793
0.00861616
0.00812972
0.00771377
0.00811731
0.00834378
0.00818845
0.00925532
0.00832273
0.010144
0.00860841
0.0106736
0.00920844
0.0113054
0.0113982
0.0107899
0.0084507
-2.11148e-17
0.0084507
6.57027e-17
0.0084507
-8.3142e-16
0.0084507
2.10037e-16
0.0084507
6.56233e-14
0.0084507
-3.18285e-13
0.0084507
2.00249e-12
0.0084507
-1.47002e-11
0.0084507
4.33505e-11
0.0084507
1.88105e-09
0.00845057
9.07303e-09
0.0084499
1.25911e-07
0.00843983
8.88926e-07
0.00837725
9.19235e-06
0.00786655
8.29701e-05
0.00704507
0.000396347
0.00776537
0.00499267
0.00916505
0.00993241
0.00865962
0.00824701
0.00840249
0.00853227
0.00851996
0.00914175
0.00885221
0.00990342
0.00932691
0.0103606
0.00989683
0.0108425
0.010553
0.0112224
0.0084507
5.39391e-18
0.0084507
8.76035e-17
0.0084507
1.65775e-15
0.0084507
1.13612e-14
0.0084507
1.6866e-14
0.0084507
2.8513e-13
0.0084507
1.42711e-12
0.0084507
3.49401e-11
0.0084507
4.04946e-10
0.00845071
-5.60721e-11
0.00845056
7.86643e-09
0.00845044
4.39915e-08
0.00844276
-9.65748e-08
0.00840891
6.66875e-06
0.00810485
-7.38587e-05
0.0071873
0.000388076
0.00768617
0.00331557
0.00998436
0.0104753
0.00942291
0.00889855
0.00907749
0.00899237
0.00897409
0.00925412
0.00920355
0.00972989
0.00967532
0.00999407
0.0102743
0.0103361
0.00989871
0.0113065
0.0084507
2.27682e-18
0.0084507
-2.18196e-17
0.0084507
9.83995e-16
0.0084507
1.97929e-15
0.0084507
1.40607e-15
0.0084507
-5.88611e-15
0.0084507
-2.73767e-13
0.0084507
2.33761e-11
0.0084507
2.96853e-10
0.0084507
2.41081e-10
0.00845065
2.16267e-09
0.00845028
3.05485e-08
0.00844675
-2.61057e-07
0.00841937
5.20156e-06
0.00818193
-9.18186e-05
0.00732633
0.000345839
0.00736632
0.00208354
0.0100718
0.0093238
0.0102058
0.00972714
0.00986444
0.00954757
0.00957328
0.00953664
0.00959442
0.00968079
0.00990122
0.00974677
0.0104695
0.00987361
0.0094955
0.0111855
0.0084507
1.04897e-17
0.0084507
8.84438e-17
0.0084507
-6.77626e-18
0.0084507
5.04856e-15
0.0084507
1.42498e-14
0.0084507
3.25175e-13
0.0084507
1.86708e-12
0.0084507
-2.75743e-13
0.0084507
1.51894e-10
0.0084507
3.84363e-10
0.00845062
9.08788e-09
0.00845068
4.56329e-08
0.00845025
1.73329e-07
0.00843109
2.54385e-06
0.00826429
1.80954e-05
0.00756433
0.000194166
0.00724096
0.00121024
0.0090376
0.0075884
0.0103708
0.010368
0.0101419
0.00986016
0.00995858
0.00965046
0.00994598
0.00966071
0.0101664
0.00959285
0.0105717
0.00954831
0.00920875
0.0111056
0.0084507
5.52943e-18
0.0084507
2.79453e-17
0.0084507
1.81848e-16
0.0084507
1.13643e-15
0.0084507
1.73807e-14
0.0084507
1.9712e-13
0.0084507
1.0694e-12
0.0084507
4.7241e-12
0.0084507
4.0407e-11
0.0084507
2.53805e-10
0.00845071
3.48595e-09
0.00845055
1.17597e-08
0.00845018
5.17243e-08
0.00844076
7.21709e-07
0.00839096
9.05807e-06
0.00799355
1.36214e-05
0.00731342
0.000790414
0.00850841
0.00521368
0.0108872
0.01086
0.0107089
0.0100546
0.0106093
0.00989289
0.0105163
0.00976522
0.0105888
0.00959745
0.010805
0.00942259
0.00900468
0.0111835
0.0084507
8.13152e-19
0.0084507
1.10589e-17
0.0084507
9.92045e-17
0.0084507
-7.13595e-16
0.0084507
4.75458e-15
0.0084507
5.24629e-14
0.0084507
-1.02775e-13
0.0084507
3.25958e-12
0.0084507
5.99358e-12
0.0084507
4.44805e-11
0.0084507
9.61186e-10
0.00845064
-5.87797e-09
0.00845013
6.8879e-08
0.00844562
1.77802e-07
0.00840863
7.27463e-06
0.0081315
-2.64786e-05
0.00737985
0.000506585
0.0081703
0.00313389
0.0112591
0.0099136
0.0114448
0.0105667
0.0112736
0.0103111
0.0110822
0.0100077
0.0110129
0.00970707
0.0110778
0.0094097
0.00894254
0.0112709
0.0084507
5.69206e-19
0.0084507
9.35124e-18
0.0084507
1.79978e-17
0.0084507
1.95373e-16
0.0084507
-4.21728e-16
0.0084507
2.06214e-14
0.0084507
1.09197e-13
0.0084507
5.11163e-13
0.0084507
1.80128e-12
0.0084507
7.4881e-11
0.0084507
1.22431e-09
0.0084507
7.94075e-10
0.00845022
5.31507e-08
0.00844982
2.63839e-07
0.0084265
3.00315e-06
0.00825828
4.09419e-05
0.00783222
-8.21932e-05
0.00804474
0.00176686
0.0104247
0.0080834
0.0118034
0.0111781
0.0116231
0.0107462
0.0114442
0.010143
0.0113585
0.00978457
0.0113847
0.00942331
0.00894193
0.011494
0.0084507
-5.42101e-20
0.0084507
4.06576e-19
0.0084507
-5.42101e-20
0.0084507
-5.09846e-17
0.0084507
8.82649e-16
0.0084507
4.01881e-15
0.0084507
7.74397e-15
0.0084507
-5.01869e-13
0.0084507
-2.2593e-12
0.0084507
4.4978e-11
0.0084507
7.94998e-10
0.00845069
-2.36595e-11
0.00845059
1.92576e-08
0.0084497
7.93138e-08
0.00844248
1.10303e-06
0.0083844
2.45777e-05
0.00802524
-0.0002147
0.00743931
0.00106588
0.00902661
0.00525782
0.0118827
0.0111275
0.0118026
0.0108526
0.011822
0.010306
0.0117356
0.00991274
0.011713
0.00949019
0.00900172
0.0117456
0.0084507
4.87891e-19
0.0084507
3.60497e-18
0.0084507
-8.83625e-18
0.0084507
2.03261e-16
0.0084507
-8.80914e-17
0.0084507
9.37545e-15
0.0084507
3.66809e-14
0.0084507
-2.15296e-13
0.0084507
4.80866e-12
0.0084507
3.57768e-12
0.0084507
3.22399e-10
0.0084507
1.03029e-09
0.00845054
1.79271e-08
0.0084506
1.51364e-07
0.00845147
3.88436e-07
0.00841148
6.42487e-06
0.00805179
5.76279e-05
0.00775157
-0.000174618
0.00883996
0.00315997
0.0120031
0.00946124
0.0126364
0.0113597
0.0123951
0.0107904
0.0122333
0.010123
0.0121373
0.00965402
0.00914872
0.012071
0.0084507
2.1684e-19
0.0084507
2.11419e-18
0.0084507
-1.56125e-17
0.0084507
1.18856e-16
0.0084507
-2.61184e-16
0.0084507
3.81203e-15
0.0084507
1.05038e-14
0.0084507
2.67039e-13
0.0084507
2.12558e-12
0.0084507
2.56811e-12
0.0084507
1.3734e-10
0.0084507
3.0712e-10
0.00845069
7.09596e-09
0.00845053
7.96227e-08
0.00844923
8.97993e-08
0.00843875
1.90306e-06
0.00835824
3.20681e-05
0.00795183
-0.000433428
0.00784582
0.00182498
0.0100427
0.00691064
0.0125272
0.0114573
0.0125024
0.0108822
0.0125886
0.0102474
0.0125112
0.00984257
0.00932892
0.0124165
0.0084507
-1.0842e-19
0.0084507
1.0842e-18
0.0084507
-1.30104e-18
0.0084507
3.14419e-17
0.0084507
7.93636e-17
0.0084507
4.71465e-16
0.0084507
1.2111e-14
0.0084507
6.04684e-14
0.0084507
1.03356e-12
0.0084507
3.70614e-12
0.0084507
1.62225e-11
0.0084507
4.32773e-10
0.0084507
1.8239e-09
0.00845053
2.95699e-08
0.00845068
1.99101e-07
0.00845139
7.15503e-07
0.00840636
9.21278e-06
0.00791884
6.50485e-05
0.00768321
0.000186486
0.00938012
0.00417509
0.0128165
0.0101781
0.0133341
0.01128
0.0131775
0.0107633
0.0129824
0.0101237
0.00956743
0.0127937
0.0084507
-2.98156e-19
0.0084507
1.6263e-18
0.0084507
-1.89735e-18
0.0084507
1.53957e-17
0.0084507
-6.28837e-18
0.0084507
1.01183e-16
0.0084507
5.28473e-15
0.0084507
1.94031e-14
0.0084507
4.48853e-13
0.0084507
7.68803e-13
0.0084507
-1.04241e-12
0.0084507
2.11709e-10
0.0084507
3.92277e-10
0.00845068
1.1528e-08
0.00845048
9.89472e-08
0.00844883
1.52221e-07
0.00843488
2.86658e-06
0.00832965
3.30053e-05
0.00798391
-0.00027217
0.00845073
0.00214351
0.0113732
0.00759165
0.0135331
0.0114949
0.0134108
0.0111164
0.0133282
0.0103356
0.00982464
0.0131312
0.0084507
1.0842e-19
0.0084507
4.33681e-19
0.0084507
1.30104e-18
0.0084507
5.23128e-18
0.0084507
6.5025e-17
0.0084507
4.6168e-16
0.0084507
7.848e-16
0.0084507
2.277e-14
0.0084507
1.26991e-13
0.0084507
1.53316e-12
0.0084507
1.42211e-11
0.0084507
3.34328e-11
0.0084507
6.53452e-10
0.0084507
2.94116e-09
0.00845047
3.92668e-08
0.00845071
2.57937e-07
0.00845212
1.1165e-06
0.00839902
1.14919e-05
0.00796875
9.40018e-05
0.00782813
0.000335499
0.00975901
0.00461965
0.0134796
0.0102317
0.0139459
0.0113469
0.0137347
0.0108399
0.0101174
0.0134717
0.0084507
-8.13152e-20
0.0084507
1.6263e-19
0.0084507
1.35525e-19
0.0084507
4.09286e-18
0.0084507
3.01408e-17
0.0084507
2.4091e-16
0.0084507
1.20645e-16
0.0084507
7.55708e-15
0.0084507
5.08768e-14
0.0084507
5.45762e-13
0.0084507
8.33552e-12
0.0084507
9.42986e-12
0.0084507
2.89418e-10
0.0084507
7.89625e-10
0.00845068
1.42705e-08
0.00845046
1.23365e-07
0.00844871
2.89795e-07
0.00843422
2.92929e-06
0.00833779
4.06377e-05
0.00805351
-0.000264972
0.00871644
0.00238474
0.0118856
0.00765152
0.014026
0.0114261
0.0138675
0.0111299
0.010294
0.0137706
0.0084507
3.52366e-19
0.0084507
8.13152e-19
0.0084507
7.86047e-19
0.0084507
1.89735e-18
0.0084507
9.51387e-18
0.0084507
3.82452e-17
0.0084507
5.42806e-16
0.0084507
4.5279e-15
0.0084507
1.18289e-14
0.0084507
2.31209e-13
0.0084507
1.62447e-13
0.0084507
1.19656e-11
0.0084507
5.66149e-11
0.0084507
7.10535e-10
0.0084507
4.36852e-11
0.00845053
4.56009e-08
0.0084508
2.96748e-07
0.00845223
1.29339e-06
0.00840495
7.87768e-06
0.00801943
9.21349e-05
0.00783083
0.000580125
0.00983286
0.0045617
0.0136675
0.00989125
0.0142489
0.0112291
0.0107478
0.0140296
0.0084507
-3.25261e-19
0.0084507
-4.33681e-19
0.0084507
-1.19262e-18
0.0084507
-1.5992e-18
0.0084507
1.89735e-18
0.0084507
-3.7676e-18
0.0084507
2.08031e-16
0.0084507
2.34388e-15
0.0084507
1.87898e-15
0.0084507
1.06347e-13
0.0084507
-6.3385e-13
0.0084507
4.66694e-12
0.0084507
1.72727e-11
0.0084507
2.33385e-10
0.0084507
-2.53909e-09
0.00845068
1.81062e-08
0.00845049
9.90413e-08
0.00844898
3.67267e-07
0.00843581
-2.06989e-06
0.00836181
3.07812e-05
0.00813066
-0.000116799
0.0088837
0.00227393
0.0119772
0.00726313
0.0142762
0.011126
0.0108816
0.0141828
0.0084507
-1.0842e-19
0.0084507
-8.13152e-20
0.0084507
-8.94467e-19
0.0084507
-1.46367e-18
0.0084507
-5.96311e-19
0.0084507
-5.01444e-18
0.0084507
5.86282e-17
0.0084507
3.73372e-16
0.0084507
3.09475e-15
0.0084507
2.36847e-14
0.0084507
2.05797e-13
0.0084507
1.40398e-12
0.0084507
4.05237e-12
0.0084507
3.99295e-11
0.0084507
5.40985e-10
0.0084507
4.34913e-09
0.00845069
-8.10574e-09
0.00845092
2.2405e-07
0.00844792
1.11973e-06
0.0084052
5.2486e-06
0.0081144
9.4004e-05
0.00778931
0.000777611
0.00981757
0.00409858
0.0137914
0.00919088
0.0109228
0.0146525
0.0084507
1.6263e-19
0.0084507
-8.13152e-20
0.0084507
1.6263e-19
0.0084507
6.77626e-19
0.0084507
1.35525e-19
0.0084507
-1.95156e-18
0.0084507
2.41777e-17
0.0084507
3.32037e-17
0.0084507
1.58768e-15
0.0084507
2.21269e-15
0.0084507
9.81813e-14
0.0084507
5.65614e-13
0.0084507
-1.32249e-13
0.0084507
2.97673e-11
0.0084507
2.91489e-11
0.0084507
1.58333e-09
0.00845069
7.9113e-09
0.00845047
6.71702e-08
0.00845001
6.62157e-08
0.00843911
-4.2139e-06
0.0083928
2.70993e-05
0.00820813
7.27388e-05
0.00883276
0.00195658
0.0116994
0.00649786
0.0103967
0.0145271
0.0084507
-2.43945e-19
0.0084507
-6.23416e-19
0.0084507
9.62965e-35
0.0084507
2.43945e-19
0.0084507
5.42101e-20
0.0084507
9.75782e-19
0.0084507
3.14419e-18
0.0084507
-5.25296e-17
0.0084507
5.46628e-16
0.0084507
-2.54354e-15
0.0084507
2.30378e-14
0.0084507
1.02034e-13
0.0084507
7.29131e-13
0.0084507
1.11319e-11
0.0084507
-3.5113e-11
0.0084507
4.83138e-10
0.0084507
1.815e-09
0.00845065
2.33671e-08
0.00845049
1.65391e-07
0.00844694
1.04911e-06
0.00841471
9.53101e-06
0.00825147
8.54672e-05
0.00781857
0.000876978
0.00961551
0.00345486
0.00797131
0.0135974
0.0084507
-6.50521e-19
0.0084507
-4.60786e-19
0.0084507
-1.13841e-18
0.0084507
-1.73472e-18
0.0084507
-1.65341e-18
0.0084507
-1.84314e-18
0.0084507
-2.11419e-18
0.0084507
-2.57498e-18
0.0084507
1.00722e-16
0.0084507
4.2189e-16
0.0084507
6.01781e-15
0.0084507
4.1446e-14
0.0084507
3.32226e-14
0.0084507
8.79546e-13
0.0084507
1.52878e-11
0.0084507
7.29688e-11
0.0084507
8.91697e-10
0.00845068
6.83114e-09
0.00845052
6.77675e-08
0.00844937
2.79575e-07
0.00844012
2.03824e-06
0.00841135
3.54605e-06
0.00827096
0.000218039
0.00889295
0.0013883
0.00513783
0.0116512
0.0084507
-4.87891e-19
0.0084507
4.33681e-19
0.0084507
-1.89735e-19
0.0084507
-4.06576e-19
0.0084507
1.0842e-19
0.0084507
-1.19262e-18
0.0084507
2.71051e-20
0.0084507
-7.39968e-18
0.0084507
3.5101e-17
0.0084507
4.01155e-17
0.0084507
1.73489e-15
0.0084507
6.04876e-15
0.0084507
-4.66259e-14
0.0084507
5.75914e-13
0.0084507
3.62041e-12
0.0084507
4.92784e-11
0.0084507
2.57192e-10
0.0084507
2.39776e-09
0.00845073
2.01117e-08
0.00845058
1.76065e-07
0.00844908
1.24781e-06
0.00843524
-1.17803e-05
0.00840777
8.57374e-05
0.00811675
0.000391506
0.0025287
0.00967029
0.0084507
-1.0842e-19
0.0084507
3.79471e-19
0.0084507
9.48677e-19
0.0084507
5.69206e-19
0.0084507
1.19262e-18
0.0084507
7.58942e-19
0.0084507
1.57209e-18
0.0084507
3.08998e-18
0.0084507
7.69784e-18
0.0084507
6.94974e-17
0.0084507
3.53098e-16
0.0084507
2.77905e-15
0.0084507
2.16239e-14
0.0084507
6.85365e-14
0.0084507
1.37159e-12
0.0084507
1.09535e-11
0.0084507
4.23734e-11
0.0084507
6.3453e-10
0.00845069
4.37546e-09
0.0084507
3.93525e-08
0.00845027
2.27287e-07
0.00843355
1.97786e-06
0.00846983
1.90593e-05
0.00835286
0.0001173
0.000975651
0.00785793
0.0084507
4.60786e-19
0.0084507
2.1684e-19
0.0084507
3.25261e-19
0.0084507
7.58942e-19
0.0084507
1.35525e-18
0.0084507
1.87025e-18
0.0084507
2.98156e-18
0.0084507
3.79471e-18
0.0084507
3.71339e-18
0.0084507
2.20635e-17
0.0084507
4.98733e-18
0.0084507
4.09666e-16
0.0084507
5.28492e-15
0.0084507
2.64554e-14
0.0084507
4.39679e-13
0.0084507
2.68132e-12
0.0084507
3.41876e-11
0.0084507
2.40997e-10
0.0084507
1.48018e-09
0.0084507
9.35741e-09
0.00845047
1.01209e-07
0.00845104
-6.49978e-07
0.00844153
7.12824e-06
0.00842381
2.21268e-05
0.000192896
0.00834287
0.0084507
1.0842e-19
0.0084507
3.52366e-19
0.0084507
2.71051e-20
0.0084507
3.25261e-19
0.0084507
6.77626e-19
0.0084507
6.23416e-19
0.0084507
9.48677e-19
0.0084507
2.03288e-18
0.0084507
3.87602e-18
0.0084507
3.68629e-18
0.0084507
3.90855e-17
0.0084507
4.46881e-16
0.0084507
1.39228e-15
0.0084507
-1.31378e-14
0.0084507
1.25367e-13
0.0084507
7.41631e-13
0.0084507
3.89234e-12
0.0084507
6.87636e-11
0.0084507
7.81286e-11
0.0084507
3.74904e-09
0.00845069
2.77561e-08
0.0084505
-1.13979e-06
0.00845311
8.39625e-07
0.00843014
1.18989e-05
4.99749e-05
0.0084353
0.0084507
-2.43945e-19
0.0084507
1.89735e-19
0.0084507
-1.80556e-35
0.0084507
5.14996e-19
0.0084507
8.67362e-19
0.0084507
1.21973e-18
0.0084507
9.48677e-19
0.0084507
1.49078e-18
0.0084507
2.11419e-18
0.0084507
-4.87891e-19
0.0084507
7.15573e-18
0.0084507
1.64555e-16
0.0084507
-1.30348e-16
0.0084507
1.5818e-15
0.0084507
4.47053e-14
0.0084507
1.91021e-13
0.0084507
-3.61675e-14
0.0084507
1.61856e-11
0.0084507
-1.36181e-10
0.00845071
4.73819e-10
0.00845075
1.30969e-09
0.0084497
-4.30467e-09
0.00844933
-5.90626e-07
0.008453
2.66504e-06
-1.36564e-05
0.0084589
0.0084507
4.06576e-19
0.0084507
7.86047e-19
0.0084507
8.13152e-19
0.0084507
1.35525e-19
0.0084507
1.0842e-19
0.0084507
-8.94467e-19
0.0084507
-1.24683e-18
0.0084507
-2.03288e-18
0.0084507
-2.60209e-18
0.0084507
-2.19551e-18
0.0084507
-6.07153e-18
0.0084507
2.97071e-17
0.0084507
1.05249e-16
0.0084507
2.41872e-15
0.0084507
9.42871e-15
0.0084507
3.39698e-14
0.0084507
6.00006e-13
0.0084507
2.81942e-12
0.0084507
2.06838e-11
0.0084507
1.03894e-10
0.0084507
-6.25925e-10
0.00845066
-1.22561e-08
0.00845042
1.3741e-08
0.00845075
1.65474e-07
6.46667e-06
0.00843437
0.0084507
1.6263e-19
0.0084507
1.0842e-19
0.0084507
4.87891e-19
0.0084507
-7.04731e-19
0.0084507
-3.79471e-19
0.0084507
-1.5992e-18
0.0084507
-2.03288e-18
0.0084507
-1.87025e-18
0.0084507
-2.1413e-18
0.0084507
-2.00577e-18
0.0084507
-5.69206e-19
0.0084507
3.46945e-18
0.0084507
4.61599e-17
0.0084507
8.26162e-16
0.0084507
1.93565e-15
0.0084507
2.86507e-14
0.0084507
1.91737e-13
0.0084507
7.0939e-13
0.0084507
1.14706e-11
0.0084507
7.03787e-11
0.0084507
2.17979e-10
0.00845069
1.85875e-09
0.00845067
-2.26095e-08
0.00845042
2.25015e-07
1.99869e-06
0.00845006
0.0084507
-2.43945e-19
0.0084507
-7.86047e-19
0.0084507
-3.52366e-19
0.0084507
2.71051e-20
0.0084507
3.79471e-19
0.0084507
3.79471e-19
0.0084507
6.23416e-19
0.0084507
5.42101e-19
0.0084507
4.06576e-19
0.0084507
1.0842e-18
0.0084507
8.94467e-19
0.0084507
3.7676e-18
0.0084507
1.92717e-17
0.0084507
1.74367e-16
0.0084507
1.06908e-15
0.0084507
9.74879e-15
0.0084507
6.03825e-14
0.0084507
-6.61302e-14
0.0084507
2.97367e-12
0.0084507
1.76666e-11
0.0084507
8.97491e-11
0.0084507
-2.35783e-11
0.00845067
7.11106e-09
0.00845077
3.8776e-08
4.29514e-07
0.00845045
0.0084507
4.60786e-19
0.0084507
4.06576e-19
0.0084507
6.50521e-19
0.0084507
8.67362e-19
0.0084507
8.94467e-19
0.0084507
6.23416e-19
0.0084507
1.0842e-18
0.0084507
9.75782e-19
0.0084507
7.58942e-19
0.0084507
1.30104e-18
0.0084507
1.38236e-18
0.0084507
1.70762e-18
0.0084507
6.01732e-18
0.0084507
3.09269e-17
0.0084507
3.60091e-16
0.0084507
1.74996e-15
0.0084507
1.39382e-14
0.0084507
9.14184e-14
0.0084507
7.8128e-13
0.0084507
8.55046e-12
0.0084507
2.50824e-11
0.0084507
2.27596e-10
0.0084507
2.77335e-09
0.00845072
9.20262e-09
1.25608e-07
0.00845085
0.0084507
1.0842e-19
0.0084507
-1.0842e-19
0.0084507
-5.14996e-19
0.0084507
-1.32815e-18
0.0084507
-9.75782e-19
0.0084507
-9.21572e-19
0.0084507
-4.33681e-19
0.0084507
-2.1684e-19
0.0084507
-2.71051e-19
0.0084507
-6.50521e-19
0.0084507
-1.11131e-18
0.0084507
-9.21572e-19
0.0084507
1.89735e-19
0.0084507
-1.1601e-17
0.0084507
1.1563e-16
0.0084507
-4.94098e-16
0.0084507
4.82942e-15
0.0084507
-6.5965e-15
0.0084507
9.29027e-14
0.0084507
1.90459e-12
0.0084507
1.42519e-11
0.0084507
9.97489e-11
0.0084507
9.23061e-10
0.00845071
2.53235e-09
1.68383e-08
0.00845071
0.0084507
-4.06576e-19
0.0084507
-9.75782e-19
0.0084507
-8.40257e-19
0.0084507
-1.32815e-18
0.0084507
-1.43657e-18
0.0084507
-1.40946e-18
0.0084507
-1.27394e-18
0.0084507
-2.24972e-18
0.0084507
-2.49366e-18
0.0084507
-2.62919e-18
0.0084507
-2.90024e-18
0.0084507
-2.98156e-18
0.0084507
-3.08998e-18
0.0084507
-1.43657e-18
0.0084507
1.69949e-17
0.0084507
1.15901e-16
0.0084507
8.68473e-16
0.0084507
7.43302e-15
0.0084507
-1.11083e-13
0.0084507
4.82365e-13
0.0084507
4.53974e-12
0.0084507
4.74247e-12
0.0084507
2.3004e-10
0.0084507
6.16152e-10
-4.30132e-09
0.00845071
0.0084507
-1.35525e-19
0.0084507
-2.71051e-19
0.0084507
-1.6263e-19
0.0084507
-2.71051e-20
0.0084507
1.0842e-19
0.0084507
-3.79471e-19
0.0084507
-1.89735e-19
0.0084507
-1.02999e-18
0.0084507
-1.21973e-18
0.0084507
-2.00577e-18
0.0084507
-2.27682e-18
0.0084507
-2.35814e-18
0.0084507
-2.49366e-18
0.0084507
-2.41235e-18
0.0084507
3.00866e-18
0.0084507
1.46367e-17
0.0084507
-7.45389e-18
0.0084507
1.58472e-15
0.0084507
1.01951e-14
0.0084507
1.07225e-13
0.0084507
9.27174e-13
0.0084507
-5.99837e-12
0.0084507
5.47068e-11
0.00845071
-9.16924e-11
1.26738e-10
0.0084507
0.0084507
2.43945e-19
0.0084507
1.89735e-19
0.0084507
1.6263e-19
0.0084507
1.35525e-19
0.0084507
1.89735e-19
0.0084507
-5.96311e-19
0.0084507
-9.48677e-19
0.0084507
-1.24683e-18
0.0084507
-1.70762e-18
0.0084507
-2.05998e-18
0.0084507
-2.1684e-18
0.0084507
-2.60209e-18
0.0084507
-2.46656e-18
0.0084507
-2.54788e-18
0.0084507
-5.14996e-19
0.0084507
5.3668e-18
0.0084507
3.9736e-17
0.0084507
2.98508e-16
0.0084507
1.40995e-15
0.0084507
8.31819e-15
0.0084507
1.44431e-13
0.0084507
4.05073e-13
0.0084507
1.09466e-12
0.0084507
2.38134e-11
-5.87947e-10
0.0084507
0.0084507
1.89735e-19
0.0084507
5.96311e-19
0.0084507
5.42101e-19
0.0084507
5.42101e-19
0.0084507
7.31836e-19
0.0084507
2.71051e-19
0.0084507
-3.79471e-19
0.0084507
-5.69206e-19
0.0084507
-5.42101e-19
0.0084507
-8.67362e-19
0.0084507
-8.40257e-19
0.0084507
-1.89735e-18
0.0084507
-2.38524e-18
0.0084507
-2.98156e-18
0.0084507
-2.60209e-18
0.0084507
-2.1684e-18
0.0084507
4.47233e-18
0.0084507
-3.20273e-16
0.0084507
1.31476e-15
0.0084507
-5.89307e-15
0.0084507
2.38126e-14
0.0084507
-6.07169e-13
0.0084507
-4.56457e-12
0.0084507
2.24594e-11
-1.57698e-10
0.0084507
0.0084507
7.52316e-36
0.0084507
2.43945e-19
0.0084507
1.89735e-19
0.0084507
5.42101e-20
0.0084507
1.0842e-19
0.0084507
2.71051e-20
0.0084507
5.42101e-19
0.0084507
8.13152e-19
0.0084507
9.48677e-19
0.0084507
-8.13152e-20
0.0084507
-1.6263e-19
0.0084507
-1.5992e-18
0.0084507
-2.08709e-18
0.0084507
-2.54788e-18
0.0084507
-2.84603e-18
0.0084507
-2.81893e-18
0.0084507
-9.48677e-19
0.0084507
-1.52059e-17
0.0084507
4.10371e-16
0.0084507
-2.11891e-15
0.0084507
3.58906e-15
0.0084507
-1.74015e-13
0.0084507
-9.39551e-13
0.0084507
7.97026e-12
-2.76088e-11
0.0084507
0.0084507
-3.52366e-19
0.0084507
-7.58942e-19
0.0084507
-1.68051e-18
0.0084507
-2.03288e-18
0.0084507
-2.41235e-18
0.0084507
-2.62919e-18
0.0084507
-2.11419e-18
0.0084507
-2.24972e-18
0.0084507
-1.92446e-18
0.0084507
-1.6263e-18
0.0084507
-1.0842e-18
0.0084507
-6.77626e-19
0.0084507
-2.98156e-19
0.0084507
-5.96311e-19
0.0084507
2.98156e-19
0.0084507
5.14996e-19
0.0084507
4.8518e-18
0.0084507
2.49638e-17
0.0084507
1.53523e-16
0.0084507
4.31811e-16
0.0084507
2.2614e-15
0.0084507
3.13155e-14
0.0084507
2.00338e-13
0.0084507
2.21875e-12
-2.27926e-12
0.0084507
0.0084507
0.0084507
0.0084507
0.0084507
0.0084507
0.0084507
0.0084507
0.0084507
0.0084507
0.0084507
0.0084507
0.0084507
0.0084507
0.0084507
0.0084507
0.0084507
0.0084507
0.0084507
0.0084507
0.0084507
0.0084507
0.0084507
0.0084507
0.0084507
0.0084507
0.00301238
0.00464438
-0.000146503
0.00315727
-0.00168656
0.00153866
-0.00196553
0.000274962
-0.00196481
1.35096e-06
-0.00199541
9.35411e-05
-0.00250795
0.000594472
-0.0030586
0.000469171
-0.00342361
0.000301749
-0.00359098
0.000157732
-0.0036211
2.86683e-05
-0.00359666
-2.04121e-05
-0.00357485
-1.0335e-05
-0.00351909
7.0745e-06
-0.00350782
-2.12719e-06
-0.00359154
3.08609e-05
-0.00367243
5.28003e-05
-0.00372401
4.56311e-05
-0.00373627
8.64396e-06
-0.00373443
3.23464e-06
-0.0037304
-5.40228e-07
-0.00372348
-2.49395e-06
-0.00372448
2.49851e-06
-0.0037164
-3.09439e-06
-0.00371995
6.03088e-07
-0.0037263
-3.33336e-06
-0.00373537
6.72893e-06
-0.00374005
5.9124e-07
-0.00375272
6.25227e-06
-0.00375659
-1.25957e-06
-0.00377962
1.56483e-06
-0.0037899
-6.23665e-06
-0.00380679
-7.46025e-06
-0.00381189
-1.81626e-05
-0.00379083
-3.42075e-05
-0.00374777
-5.49724e-05
-0.00364228
-9.49291e-05
-0.00354973
-9.41443e-05
-0.00334753
-0.000170527
-0.00315092
-0.000187996
-0.00296919
-0.000185367
-0.00273749
-0.000226019
-0.0024911
-0.000242675
-0.00218212
-0.000283751
-0.00188526
-0.000287268
-0.00154255
-0.000335755
-0.00109028
-0.000434851
-0.000642671
-0.000441571
-0.000202085
-0.000436525
0.000236346
-0.000439291
0.000645687
-0.000412233
0.00102419
-0.000379334
0.00139139
-0.000366829
0.00173989
-0.000346744
0.00206721
-0.000328107
0.00236801
-0.000299252
0.0026478
-0.000277959
0.00290758
-0.000256284
0.00314372
-0.000234314
0.00335757
-0.000212472
0.00355473
-0.000194881
0.00373805
-0.000180713
0.0039047
-0.00016582
0.00405595
-0.000151228
0.00419433
-0.000138341
0.00432126
-0.000127005
0.00443884
-0.000117508
0.00454809
-0.000108783
0.00464953
-0.000100816
0.00474312
-9.3321e-05
0.00482931
-8.61499e-05
0.00490714
-7.86893e-05
0.0049774
-7.13428e-05
0.00504061
-6.41555e-05
0.00509853