/*--------------------------------*- C++ -*----------------------------------*\
| =========                 |                                                 |
| \\      /  F ield         | OpenFOAM: The Open Source CFD Toolbox           |
|  \\    /   O peration     | Version:  v2106                                 |
|   \\  /    A nd           | Website:  www.openfoam.com                      |
|    \\/     M anipulation  |                                                 |
\*---------------------------------------------------------------------------*/
FoamFile
{
    version     2.0;
    format      ascii;
    arch        "LSB;label=32;scalar=64";
    class       volScalarField;
    location    "11";
    object      rho;
}
// * * * * * * * * * * * * * * * * * * * * * * * * * * * * * * * * * * * * * //

dimensions      [1 -3 0 0 0 0 0];

internalField   nonuniform List<scalar> 
5250
(
1.40845
1.40845
1.40845
1.40845
1.40845
1.40845
1.40845
1.40845
1.40845
1.40842
1.40817
1.40589
1.39536
1.5023
2.09545
4.62541
7.54362
6.60813
6.83677
6.95976
7.00518
7.07064
7.13094
7.19425
7.25265
1.40845
1.40845
1.40845
1.40845
1.40845
1.40845
1.40845
1.40845
1.40845
1.40842
1.40818
1.40608
1.39507
1.4963
2.11105
4.53975
7.62318
6.63382
6.85714
6.98526
7.0251
7.08381
7.14097
7.20105
7.25688
1.40845
1.40845
1.40845
1.40845
1.40845
1.40845
1.40845
1.40845
1.40845
1.40842
1.40819
1.40633
1.39486
1.48658
2.07594
4.30592
7.74029
6.65503
6.8793
7.00446
7.03672
7.08809
7.14021
7.19424
7.24347
1.40845
1.40845
1.40845
1.40845
1.40845
1.40845
1.40845
1.40845
1.40845
1.40843
1.40821
1.40667
1.39478
1.47411
2.02711
3.95786
7.83549
6.66234
6.9078
7.03068
7.058
7.10023
7.1366
7.18009
7.22297
1.40845
1.40845
1.40845
1.40845
1.40845
1.40845
1.40845
1.40845
1.40845
1.40843
1.40822
1.40707
1.39503
1.45991
1.96642
3.57615
7.78671
6.59145
6.85015
7.01829
7.05542
7.10369
7.12122
7.15365
7.18963
1.40845
1.40845
1.40845
1.40845
1.40845
1.40845
1.40845
1.40845
1.40845
1.40843
1.40827
1.40727
1.39538
1.44502
1.89049
3.25091
7.57422
6.4808
6.75327
6.93622
7.00679
7.06507
7.09594
7.10526
7.13622
1.40845
1.40845
1.40845
1.40845
1.40845
1.40845
1.40845
1.40845
1.40845
1.40844
1.40829
1.40751
1.39635
1.43093
1.80463
2.87997
7.17661
6.33394
6.57939
6.80772
6.90053
6.9985
7.03956
7.04343
7.0633
1.40845
1.40845
1.40845
1.40845
1.40845
1.40845
1.40845
1.40845
1.40845
1.40845
1.40827
1.40786
1.39777
1.42067
1.75461
2.61179
6.75995
6.16638
6.36643
6.60581
6.77906
6.88701
6.94708
6.95978
6.9528
1.40845
1.40845
1.40845
1.40845
1.40845
1.40845
1.40845
1.40845
1.40845
1.40845
1.4083
1.40806
1.39947
1.41084
1.68381
2.38185
6.36495
6.0234
6.13052
6.35812
6.57323
6.7036
6.80984
6.77776
6.78177
1.40845
1.40845
1.40845
1.40845
1.40845
1.40845
1.40845
1.40845
1.40845
1.40846
1.4083
1.40832
1.39987
1.41105
1.62523
2.20177
6.00545
5.99052
6.01666
6.10277
6.30326
6.48352
6.56597
6.6881
6.51661
1.40845
1.40845
1.40845
1.40845
1.40845
1.40845
1.40845
1.40845
1.40845
1.40845
1.40837
1.40819
1.40341
1.39931
1.55806
2.00119
5.33599
6.12426
5.99685
5.95358
6.03182
6.20858
6.23692
6.38307
5.43733
1.40845
1.40845
1.40845
1.40845
1.40845
1.40845
1.40845
1.40845
1.40845
1.40844
1.40844
1.40802
1.40696
1.38809
1.49558
1.81708
4.58668
6.33995
5.93541
5.86428
5.83578
5.89784
5.79126
5.74616
5.40708
1.40845
1.40845
1.40845
1.40845
1.40845
1.40845
1.40845
1.40845
1.40845
1.40845
1.40843
1.40824
1.40717
1.39511
1.45278
1.88549
3.718
6.6728
5.97606
5.82252
5.74088
5.68847
5.55323
5.35566
5.39971
1.40845
1.40845
1.40845
1.40845
1.40845
1.40845
1.40845
1.40845
1.40845
1.40845
1.40844
1.40829
1.40768
1.39715
1.42298
1.76908
2.8759
6.48917
6.06073
5.84411
5.69316
5.5736
5.39799
5.18518
5.15891
1.40845
1.40845
1.40845
1.40845
1.40845
1.40845
1.40845
1.40845
1.40845
1.40845
1.40846
1.40825
1.40845
1.39832
1.41962
1.64939
2.33144
5.81608
6.04341
5.9083
5.68745
5.49755
5.27799
5.0556
4.8708
1.40845
1.40845
1.40845
1.40845
1.40845
1.40845
1.40845
1.40845
1.40845
1.40845
1.40845
1.4084
1.40812
1.40437
1.40077
1.53265
1.90899
4.66754
6.09367
5.98513
5.73286
5.45489
5.21485
4.99073
4.72982
1.40845
1.40845
1.40845
1.40845
1.40845
1.40845
1.40845
1.40845
1.40845
1.40845
1.40844
1.40857
1.40783
1.40921
1.38385
1.4452
1.66301
3.565
5.94194
5.87252
5.66132
5.43707
5.19734
4.95464
4.67521
1.40845
1.40845
1.40845
1.40845
1.40845
1.40845
1.40845
1.40845
1.40845
1.40845
1.40845
1.40846
1.40822
1.40814
1.39661
1.42578
1.72067
2.60853
5.57015
5.70584
5.67856
5.46642
5.22473
4.95974
4.67435
1.40845
1.40845
1.40845
1.40845
1.40845
1.40845
1.40845
1.40845
1.40845
1.40845
1.40845
1.40845
1.40838
1.40801
1.4035
1.40229
1.58865
2.06539
4.71402
5.6542
5.68392
5.47734
5.24328
4.98347
4.69239
1.40845
1.40845
1.40845
1.40845
1.40845
1.40845
1.40845
1.40845
1.40845
1.40845
1.40845
1.40843
1.40849
1.40776
1.40864
1.38056
1.49954
1.67708
3.59934
5.54505
5.60634
5.41291
5.20923
4.98852
4.73074
1.40845
1.40845
1.40845
1.40845
1.40845
1.40845
1.40845
1.40845
1.40845
1.40845
1.40845
1.40845
1.40844
1.40834
1.40759
1.40201
1.41699
1.64956
2.48534
5.08247
5.37405
5.38001
5.20202
4.99801
4.76222
1.40845
1.40845
1.40845
1.40845
1.40845
1.40845
1.40845
1.40845
1.40845
1.40845
1.40845
1.40845
1.40842
1.40874
1.40655
1.4138
1.35438
1.59494
1.94503
4.04987
5.39614
5.39974
5.22998
5.03529
4.80657
1.40845
1.40845
1.40845
1.40845
1.40845
1.40845
1.40845
1.40845
1.40845
1.40845
1.40845
1.40845
1.40845
1.40844
1.40825
1.40738
1.39871
1.43857
1.60501
2.88435
5.10107
5.20287
5.19012
5.04194
4.83909
1.40845
1.40845
1.40845
1.40845
1.40845
1.40845
1.40845
1.40845
1.40845
1.40845
1.40845
1.40845
1.40844
1.40842
1.40881
1.40644
1.41717
1.32564
1.54029
2.08896
4.26953
5.21192
5.24388
5.08308
4.8799
1.40845
1.40845
1.40845
1.40845
1.40845
1.40845
1.40845
1.40845
1.40845
1.40845
1.40845
1.40845
1.40845
1.40845
1.40843
1.4082
1.40715
1.39676
1.46816
1.57571
3.14478
5.03474
5.13743
5.05541
4.88457
1.40845
1.40845
1.40845
1.40845
1.40845
1.40845
1.40845
1.40845
1.40845
1.40845
1.40845
1.40845
1.40845
1.40844
1.40841
1.40888
1.40623
1.41446
1.33618
1.5195
2.13717
4.25196
5.03027
5.06954
4.90173
1.40845
1.40845
1.40845
1.40845
1.40845
1.40845
1.40845
1.40845
1.40845
1.40845
1.40845
1.40845
1.40845
1.40845
1.40845
1.40843
1.40817
1.40715
1.39649
1.48136
1.60389
3.12318
4.85457
4.94513
4.86503
1.40845
1.40845
1.40845
1.40845
1.40845
1.40845
1.40845
1.40845
1.40845
1.40845
1.40845
1.40845
1.40845
1.40845
1.40845
1.40842
1.4089
1.40567
1.41645
1.33513
1.49438
2.08731
4.05535
4.84887
4.86647
1.40845
1.40845
1.40845
1.40845
1.40845
1.40845
1.40845
1.40845
1.40845
1.40845
1.40845
1.40845
1.40845
1.40845
1.40845
1.40845
1.40844
1.40816
1.40768
1.39457
1.47296
1.57261
2.97187
4.63989
4.73333
1.40845
1.40845
1.40845
1.40845
1.40845
1.40845
1.40845
1.40845
1.40845
1.40845
1.40845
1.40845
1.40845
1.40845
1.40845
1.40845
1.40844
1.40879
1.40572
1.41342
1.34623
1.48129
1.98747
3.78083
4.68718
1.40845
1.40845
1.40845
1.40845
1.40845
1.40845
1.40845
1.40845
1.40845
1.40845
1.40845
1.40845
1.40845
1.40845
1.40845
1.40845
1.40844
1.40845
1.40811
1.40783
1.3945
1.44912
1.50344
2.72497
4.35619
1.40845
1.40845
1.40845
1.40845
1.40845
1.40845
1.40845
1.40845
1.40845
1.40845
1.40845
1.40845
1.40845
1.40845
1.40845
1.40845
1.40845
1.40844
1.40866
1.40659
1.40921
1.36667
1.49587
1.833
3.37603
1.40845
1.40845
1.40845
1.40845
1.40845
1.40845
1.40845
1.40845
1.40845
1.40845
1.40845
1.40845
1.40845
1.40845
1.40845
1.40845
1.40845
1.40845
1.40843
1.40826
1.40761
1.39846
1.42848
1.5185
2.42639
1.40845
1.40845
1.40845
1.40845
1.40845
1.40845
1.40845
1.40845
1.40845
1.40845
1.40845
1.40845
1.40845
1.40845
1.40845
1.40845
1.40845
1.40845
1.40844
1.4085
1.40829
1.40757
1.37797
1.50851
1.70846
1.40845
1.40845
1.40845
1.40845
1.40845
1.40845
1.40845
1.40845
1.40845
1.40845
1.40845
1.40845
1.40845
1.40845
1.40845
1.40845
1.40845
1.40845
1.40845
1.40844
1.40848
1.40616
1.42718
1.36798
1.43758
1.40845
1.40845
1.40845
1.40845
1.40845
1.40845
1.40845
1.40845
1.40845
1.40845
1.40845
1.40845
1.40845
1.40845
1.40845
1.40845
1.40845
1.40845
1.40845
1.40845
1.40846
1.40813
1.40862
1.39576
1.43313
1.40845
1.40845
1.40845
1.40845
1.40845
1.40845
1.40845
1.40845
1.40845
1.40845
1.40845
1.40845
1.40845
1.40845
1.40845
1.40845
1.40845
1.40845
1.40845
1.40845
1.40845
1.40845
1.40806
1.41048
1.36812
1.40845
1.40845
1.40845
1.40845
1.40845
1.40845
1.40845
1.40845
1.40845
1.40845
1.40845
1.40845
1.40845
1.40845
1.40845
1.40845
1.40845
1.40845
1.40845
1.40845
1.40846
1.40826
1.40829
1.40733
1.41207
1.40845
1.40845
1.40845
1.40845
1.40845
1.40845
1.40845
1.40845
1.40845
1.40845
1.40845
1.40845
1.40845
1.40845
1.40845
1.40845
1.40845
1.40845
1.40845
1.40845
1.40845
1.40845
1.40834
1.40847
1.40657
1.40845
1.40845
1.40845
1.40845
1.40845
1.40845
1.40845
1.40845
1.40845
1.40845
1.40845
1.40845
1.40845
1.40845
1.40845
1.40845
1.40845
1.40845
1.40845
1.40845
1.40845
1.40845
1.40845
1.40842
1.40824
1.40845
1.40845
1.40845
1.40845
1.40845
1.40845
1.40845
1.40845
1.40845
1.40845
1.40845
1.40845
1.40845
1.40845
1.40845
1.40845
1.40845
1.40845
1.40845
1.40845
1.40845
1.40845
1.40845
1.4084
1.40853
1.40845
1.40845
1.40845
1.40845
1.40845
1.40845
1.40845
1.40845
1.40845
1.40845
1.40845
1.40845
1.40845
1.40845
1.40845
1.40845
1.40845
1.40845
1.40845
1.40845
1.40845
1.40845
1.40845
1.40845
1.40854
1.40845
1.40845
1.40845
1.40845
1.40845
1.40845
1.40845
1.40845
1.40845
1.40845
1.40845
1.40845
1.40845
1.40845
1.40845
1.40845
1.40845
1.40845
1.40845
1.40845
1.40845
1.40845
1.40845
1.40845
1.40846
1.40845
1.40845
1.40845
1.40845
1.40845
1.40845
1.40845
1.40845
1.40845
1.40845
1.40845
1.40845
1.40845
1.40845
1.40845
1.40845
1.40845
1.40845
1.40845
1.40845
1.40845
1.40845
1.40845
1.40845
1.40845
1.40845
1.40845
1.40845
1.40845
1.40845
1.40845
1.40845
1.40845
1.40845
1.40845
1.40845
1.40845
1.40845
1.40845
1.40845
1.40845
1.40845
1.40845
1.40845
1.40845
1.40845
1.40845
1.40845
1.40845
1.40845
1.40845
1.40845
1.40845
1.40845
1.40845
1.40845
1.40845
1.40845
1.40845
1.40845
1.40845
1.40845
1.40845
1.40845
1.40845
1.40845
1.40845
1.40845
1.40845
1.40845
1.40845
1.40845
1.40845
1.40845
1.40845
1.40845
1.40845
1.40845
1.40845
1.40845
1.40845
1.40845
1.40845
1.40845
1.40845
1.40845
1.40845
1.40845
1.40845
1.40845
1.40845
1.40845
1.40845
1.40845
1.40845
1.40845
1.40845
1.40845
1.40845
1.40845
1.40845
1.40845
1.40845
1.40845
1.40845
1.40845
1.40845
1.40845
1.40845
1.40845
1.40845
1.40845
1.40845
1.40845
1.40845
1.40845
1.40845
1.40845
1.40845
1.40845
1.40845
1.40845
1.40845
1.40845
1.40845
1.40845
1.40845
1.40845
1.40845
1.40845
1.40845
1.40845
1.40845
1.40845
1.40845
1.40845
1.40845
1.40845
1.40845
1.40845
1.40845
1.40845
1.40845
1.40845
1.40845
1.40845
1.40845
1.40845
1.40845
1.40845
1.40845
1.40845
1.40845
1.40845
1.40845
1.40845
1.40845
1.40845
1.40845
1.40845
1.40845
1.40845
1.40845
1.40845
1.40845
1.40845
1.40845
1.40845
1.40845
1.40845
1.40845
1.40845
1.40845
1.40845
1.40845
1.92943
1.92943
2.00932
1.74205
1.88403
1.85404
1.71772
1.48374
1.42474
1.4089
1.42175
1.4311
1.43169
1.41786
1.34777
1.28975
1.26185
1.25725
1.26386
1.26961
1.27186
1.27253
1.26891
1.26483
1.25565
1.25132
1.24715
1.24611
1.24553
1.25055
1.25741
1.28109
1.30912
1.3556
1.4119
1.47819
1.55828
1.62662
1.72401
1.79314
1.85983
1.93874
2.00722
2.09772
2.17448
2.23725
2.31336
2.37331
2.4198
2.45756
2.49552
2.52226
2.54424
2.56108
2.57272
2.57881
2.58186
2.58188
2.57815
2.57067
2.56128
2.5507
2.5378
2.52271
2.50666
2.48982
2.47236
2.45477
2.43703
2.41863
2.40002
2.38049
2.36105
2.34162
2.32277
2.30416
2.28601
2.26791
2.25007
2.23219
2.21454
2.19692
2.1798
2.16288
2.14672
2.13063
2.11533
2.09977
2.08481
2.06933
2.0543
2.03851
2.02309
2.00697
1.99109
1.97472
1.95828
1.94361
1.91974
1.89983
2.865
2.55691
2.116
1.78987
1.9391
1.90033
1.75102
1.37566
1.2396
1.20932
1.24061
1.26231
1.26351
1.23141
1.17159
1.14317
1.12057
1.11097
1.1129
1.11482
1.11584
1.11662
1.11282
1.11208
1.10432
1.1001
1.09176
1.08722
1.08566
1.09076
1.10007
1.11868
1.14297
1.17887
1.22346
1.28303
1.35601
1.42503
1.52919
1.62744
1.71737
1.80526
1.89235
1.92893
2.03607
2.11598
2.20089
2.30223
2.37949
2.45051
2.52093
2.57776
2.62264
2.66019
2.68848
2.70914
2.72421
2.73601
2.74588
2.74936
2.74611
2.74081
2.73359
2.7232
2.71176
2.70015
2.68844
2.67483
2.66084
2.64507
2.62905
2.61146
2.59303
2.5735
2.55407
2.53408
2.51443
2.49462
2.47506
2.4553
2.43583
2.41616
2.397
2.37813
2.36
2.34243
2.32572
2.3094
2.29384
2.27843
2.26354
2.24849
2.23374
2.2185
2.20328
2.18736
2.17072
2.15605
2.12863
2.10539
3.80868
3.06469
2.59308
2.12603
2.02931
1.94449
1.71732
1.35489
1.18248
1.17157
1.19173
1.21855
1.248
1.22955
1.17831
1.08077
1.03575
1.02643
1.02691
1.04576
1.04657
1.04676
1.04025
1.03535
1.02715
1.02338
1.01874
1.02166
1.01711
1.02205
1.02412
1.0421
1.06542
1.1004
1.15721
1.2087
1.28898
1.35426
1.40696
1.51197
1.60523
1.71212
1.83267
1.97421
2.13704
2.26866
2.38635
2.51614
2.62377
2.7235
2.80423
2.86657
2.9226
2.96132
2.99039
3.01041
3.02339
3.0319
3.03678
3.03895
3.03428
3.0258
3.01554
3.00197
2.98527
2.96803
2.95129
2.93451
2.91669
2.89785
2.87827
2.85719
2.83614
2.8146
2.79323
2.77096
2.74889
2.72661
2.70457
2.68248
2.66066
2.6385
2.61695
2.59575
2.57548
2.55568
2.5367
2.51789
2.49956
2.48126
2.4632
2.44517
2.42731
2.40944
2.39151
2.3734
2.35494
2.33826
2.31018
2.28437
4.42261
3.56481
3.03686
2.539
2.25355
2.09231
1.9238
1.65177
1.42319
1.27662
1.23526
1.22904
1.23815
1.2212
1.15682
1.05145
1.01365
1.00999
1.01323
1.02927
1.03082
1.04949
1.05716
1.05202
1.04107
1.04235
1.02436
1.02647
1.01361
1.01949
1.02706
1.04015
1.05421
1.07409
1.09543
1.13348
1.21335
1.30913
1.44005
1.6019
1.7741
1.92205
2.07827
2.21318
2.3698
2.5085
2.64919
2.77642
2.90424
2.97364
3.04529
3.10625
3.15348
3.19571
3.22092
3.23674
3.24346
3.24501
3.24221
3.23926
3.23534
3.22556
3.21169
3.19278
3.17227
3.15227
3.13282
3.11339
3.09243
3.06978
3.04647
3.02328
2.99972
2.97619
2.95328
2.93029
2.90721
2.88352
2.85979
2.83555
2.81142
2.78715
2.76351
2.74076
2.71892
2.69794
2.67769
2.65807
2.63878
2.61973
2.60057
2.58146
2.56216
2.54282
2.5233
2.5036
2.48353
2.46442
2.43494
2.40502
4.4883
3.89884
3.34527
2.92133
2.66348
2.40576
2.18954
1.92901
1.61894
1.45762
1.39122
1.36267
1.31198
1.28405
1.24922
1.17994
1.11327
1.06515
1.04046
1.03729
1.03773
1.04448
1.04489
1.04331
1.03641
1.03292
1.01807
1.02502
1.01892
1.02825
1.02692
1.03098
1.04665
1.07103
1.12148
1.19621
1.29876
1.4381
1.60479
1.76053
1.93657
2.10664
2.29194
2.424
2.57372
2.69823
2.81629
2.93103
3.05246
3.12675
3.2056
3.25714
3.30577
3.32732
3.35185
3.36227
3.36866
3.37443
3.37547
3.36644
3.35549
3.34162
3.32661
3.31032
3.29166
3.27038
3.24874
3.22658
3.20372
3.18014
3.156
3.12997
3.10461
3.08044
3.05659
3.03233
3.0077
2.98305
2.95851
2.93413
2.91032
2.88644
2.86204
2.83814
2.8151
2.79283
2.77121
2.75025
2.72975
2.70973
2.68992
2.6703
2.65048
2.63047
2.61022
2.5897
2.56874
2.54785
2.51814
2.48538
4.44333
4.03995
3.58224
3.18481
2.95061
2.75093
2.52774
2.27291
1.92947
1.69269
1.59575
1.54469
1.47853
1.41433
1.3481
1.25736
1.18461
1.14097
1.12139
1.1152
1.09736
1.09237
1.07666
1.07266
1.05673
1.05931
1.04003
1.04572
1.02999
1.03209
1.03756
1.04947
1.06875
1.10834
1.17172
1.26238
1.38223
1.52494
1.67693
1.82131
1.98019
2.15279
2.355
2.52648
2.68664
2.79699
2.89923
3.00358
3.09327
3.17328
3.2549
3.3333
3.39217
3.41899
3.4236
3.43232
3.44404
3.45139
3.45164
3.44133
3.42941
3.41844
3.40434
3.38714
3.36676
3.34425
3.32137
3.29832
3.27438
3.24892
3.22319
3.19761
3.17279
3.14862
3.1238
3.09871
3.07361
3.04877
3.02413
2.9997
2.97544
2.94994
2.92478
2.90102
2.87801
2.85578
2.83406
2.81289
2.792
2.77144
2.75091
2.73045
2.70994
2.68932
2.66847
2.64737
2.62598
2.60405
2.57555
2.54125
4.35157
4.06494
3.71942
3.40498
3.15739
2.99774
2.81392
2.6312
2.37445
2.06724
1.85901
1.77165
1.7033
1.6331
1.55519
1.46378
1.36722
1.29533
1.24409
1.22015
1.19494
1.17872
1.15406
1.13477
1.11161
1.09851
1.07618
1.07641
1.06288
1.0678
1.08277
1.10005
1.13317
1.20188
1.29906
1.42873
1.54296
1.66028
1.75611
1.86396
1.9642
2.08309
2.20823
2.34105
2.4908
2.65452
2.85157
3.02344
3.14717
3.19775
3.25765
3.31251
3.39015
3.44042
3.47217
3.4758
3.47908
3.47324
3.47509
3.47533
3.47005
3.45878
3.43824
3.42158
3.40414
3.38477
3.36263
3.3384
3.31352
3.28957
3.26569
3.24068
3.21476
3.18887
3.16385
3.1391
3.11397
3.08886
3.06389
3.03876
3.01347
2.98795
2.96327
2.94011
2.91746
2.8953
2.87339
2.85187
2.83052
2.80947
2.78862
2.76809
2.74766
2.72721
2.70651
2.68553
2.66422
2.64201
2.61332
2.57793
4.3369
4.04993
3.77705
3.51338
3.28381
3.14477
2.99692
2.82855
2.64512
2.40617
2.16535
2.00542
1.93223
1.86616
1.7848
1.70766
1.59699
1.49229
1.4219
1.38219
1.34755
1.33361
1.29831
1.26803
1.22215
1.20834
1.16671
1.17877
1.14346
1.14443
1.20504
1.26577
1.3369
1.43584
1.55654
1.63881
1.70383
1.77863
1.83781
1.90181
1.9601
2.03082
2.10569
2.1936
2.30143
2.42474
2.5623
2.72067
2.99344
3.197
3.3091
3.32938
3.35678
3.38714
3.46493
3.49185
3.4921
3.48622
3.48521
3.48404
3.47799
3.46739
3.45385
3.44161
3.42287
3.39951
3.37673
3.3546
3.33321
3.3104
3.28268
3.25623
3.23138
3.2079
3.18346
3.1574
3.13194
3.10686
3.0818
3.05676
3.0318
3.00653
2.98222
2.95983
2.93805
2.91663
2.89532
2.87425
2.8533
2.83257
2.8121
2.7919
2.77174
2.75148
2.73067
2.70931
2.68762
2.66472
2.63614
2.60011
4.35966
4.04808
3.79007
3.55638
3.38339
3.22827
3.1102
2.97212
2.8162
2.64597
2.43917
2.25555
2.13932
2.07479
2.00968
1.93367
1.8497
1.73179
1.63688
1.57128
1.53369
1.50457
1.47549
1.44459
1.40596
1.36609
1.33703
1.30575
1.32285
1.34784
1.48129
1.58139
1.68854
1.80274
1.87803
1.88918
1.88933
1.91567
1.92816
1.95939
1.98677
2.02188
2.05762
2.10334
2.15967
2.22416
2.32312
2.46616
2.62249
2.79774
3.1561
3.39777
3.38807
3.38718
3.39242
3.41594
3.44934
3.4754
3.48026
3.47983
3.45965
3.454
3.44435
3.43268
3.41572
3.39391
3.37323
3.35382
3.33312
3.30889
3.28313
3.25864
3.23485
3.20949
3.18351
3.15819
3.13337
3.10916
3.08547
3.06228
3.03921
3.01281
2.98791
2.96528
2.94357
2.92238
2.90142
2.88078
2.86041
2.84026
2.82023
2.80016
2.77991
2.75946
2.73845
2.71719
2.69575
2.67344
2.64626
2.61022
4.42632
4.10336
3.83681
3.58692
3.44488
3.28447
3.18339
3.07003
2.93518
2.77875
2.61314
2.43191
2.29474
2.21926
2.16385
2.10119
2.03188
1.9542
1.86325
1.78138
1.72643
1.69155
1.6707
1.63426
1.61579
1.56933
1.57282
1.53073
1.57556
1.68742
1.96322
2.07205
2.15399
2.19896
2.16036
2.10451
2.06684
2.05279
2.03365
2.02325
2.02793
2.05053
2.06645
2.08285
2.10096
2.12916
2.18191
2.24005
2.31882
2.47296
2.65995
2.95555
3.27604
3.41647
3.39891
3.39061
3.39573
3.4407
3.44113
3.44002
3.43304
3.43013
3.42483
3.41534
3.40511
3.39084
3.37195
3.35173
3.32884
3.30555
3.28195
3.25825
3.23463
3.20871
3.18315
3.15909
3.13562
3.11244
3.08918
3.06593
3.03964
3.01228
2.98812
2.96628
2.94532
2.92488
2.90466
2.88459
2.86457
2.84455
2.82453
2.80451
2.78437
2.76403
2.743
2.72175
2.70033
2.67794
2.65087
2.61412
4.49727
4.18442
3.90479
3.65794
3.47676
3.32478
3.22785
3.12619
3.00504
2.87391
2.72537
2.56906
2.4172
2.3094
2.25949
2.20375
2.14549
2.08953
2.01485
1.94712
1.87768
1.82438
1.7997
1.77794
1.75813
1.74583
1.74674
1.79362
1.8936
2.34354
2.49964
2.5646
2.57523
2.5345
2.4444
2.36394
2.30925
2.25695
2.21109
2.1798
2.1514
2.1176
2.09545
2.09236
2.09543
2.10118
2.10651
2.11464
2.15151
2.22778
2.33319
2.50603
2.69655
3.13257
3.43951
3.44106
3.41862
3.39509
3.39441
3.40869
3.4339
3.43558
3.43317
3.42347
3.41067
3.39671
3.38042
3.36199
3.3415
3.31885
3.29657
3.27476
3.25199
3.22474
3.19769
3.17338
3.15087
3.12889
3.10611
3.08263
3.05559
3.02823
3.00452
2.98303
2.96208
2.94128
2.9204
2.89938
2.87827
2.85713
2.83603
2.81494
2.79379
2.77258
2.75113
2.72953
2.70781
2.68519
2.65787
2.6203
4.55508
4.27328
3.99106
3.73633
3.52709
3.37853
3.25284
3.15177
3.0527
2.94398
2.80897
2.6799
2.53074
2.40816
2.33002
2.27746
2.24034
2.18766
2.12637
2.07242
2.00569
1.93994
1.89922
1.88144
1.87098
1.87769
1.91299
2.07267
2.30377
2.94166
2.99296
2.98907
2.9372
2.82499
2.72618
2.6481
2.56576
2.49301
2.43146
2.37801
2.31387
2.26183
2.21272
2.15872
2.12644
2.10103
2.0775
2.08026
2.09738
2.11494
2.15236
2.24032
2.38559
2.59029
2.87729
3.30036
3.47536
3.46456
3.40626
3.41009
3.42209
3.44414
3.44636
3.44022
3.42969
3.41761
3.40182
3.38316
3.36282
3.3427
3.32409
3.2995
3.2727
3.24679
3.22219
3.19952
3.1782
3.15655
3.13253
3.10783
3.08135
3.05553
3.03228
3.01064
2.98929
2.96787
2.94618
2.92423
2.90209
2.87988
2.85765
2.83539
2.813
2.7905
2.76785
2.74518
2.72252
2.69902
2.6704
2.63108
4.5954
4.33934
4.07419
3.81352
3.59779
3.44088
3.2955
3.19124
3.09033
2.97988
2.8675
2.74338
2.62712
2.49533
2.4005
2.34341
2.29303
2.24542
2.20751
2.15793
2.09586
2.0246
1.96881
1.9548
1.95738
1.9905
2.11189
2.30608
2.95445
3.28139
3.30939
3.27225
3.17855
3.05658
2.95046
2.85203
2.74978
2.66408
2.58541
2.50668
2.43473
2.37567
2.31821
2.27053
2.23156
2.16475
2.11381
2.09399
2.0969
2.09111
2.10702
2.12723
2.17339
2.27037
2.45959
2.6479
3.12803
3.48033
3.49265
3.4616
3.40955
3.4026
3.41693
3.4253
3.42202
3.41443
3.40148
3.38637
3.36935
3.35102
3.33154
3.3112
3.28187
3.25572
3.23324
3.21271
3.19214
3.17024
3.14711
3.121
3.09551
3.07184
3.04936
3.02754
3.00576
2.98392
2.96199
2.94001
2.91811
2.89633
2.87453
2.85256
2.83031
2.80783
2.78515
2.76232
2.73917
2.71475
2.68434
2.64261
4.64121
4.39534
4.15494
3.89918
3.68548
3.50962
3.3596
3.24775
3.13255
3.02241
2.92048
2.80142
2.68563
2.57608
2.4735
2.39261
2.33825
2.29954
2.25636
2.19973
2.16049
2.08031
2.03464
2.02252
2.03845
2.13361
2.37059
2.88799
3.47799
3.50338
3.48649
3.42847
3.3339
3.23579
3.13535
3.02944
2.92734
2.82972
2.73943
2.65243
2.57487
2.50768
2.44621
2.39146
2.32027
2.26632
2.22977
2.19118
2.14672
2.12019
2.10927
2.09756
2.10186
2.1378
2.20347
2.32573
2.5315
2.7894
3.26978
3.48721
3.51708
3.40408
3.37056
3.37006
3.40143
3.40119
3.39395
3.38115
3.36658
3.35157
3.33598
3.31723
3.29527
3.26625
3.24133
3.21998
3.19941
3.1787
3.15795
3.13733
3.11621
3.09185
3.06861
3.04614
3.02371
3.00133
2.97915
2.95737
2.93598
2.9149
2.8939
2.87275
2.85128
2.82944
2.80646
2.78245
2.75776
2.73161
2.69912
2.65516
4.6718
4.43785
4.22032
3.96784
3.75242
3.5896
3.43603
3.30847
3.19354
3.08525
2.97348
2.86856
2.73666
2.62985
2.54189
2.45371
2.38483
2.33687
2.28552
2.24562
2.19723
2.12726
2.09541
2.09873
2.15939
2.3904
2.75657
3.40585
3.6053
3.61424
3.5871
3.53388
3.46228
3.37662
3.28048
3.17625
3.07332
2.97176
2.87585
2.78454
2.70255
2.6301
2.55713
2.49158
2.43537
2.38994
2.34898
2.29496
2.24907
2.2119
2.16483
2.13747
2.09713
2.09738
2.09937
2.13208
2.22617
2.38228
2.57286
3.0073
3.39042
3.47221
3.45908
3.36307
3.33977
3.33857
3.35477
3.35923
3.35191
3.3384
3.31583
3.29596
3.27817
3.2583
3.2342
3.20927
3.18701
3.16722
3.14892
3.13127
3.11268
3.09132
3.06854
3.04704
3.02638
3.0055
2.98413
2.96273
2.94145
2.92023
2.89901
2.87755
2.85564
2.83316
2.80988
2.78585
2.76104
2.73466
2.70213
2.65696
4.70344
4.48271
4.28127
4.03852
3.80977
3.65518
3.5106
3.37474
3.2655
3.15741
3.04415
2.93509
2.81705
2.68584
2.59378
2.52397
2.43212
2.36922
2.32209
2.28696
2.2186
2.1786
2.17457
2.21257
2.39121
2.65388
3.33815
3.67355
3.67949
3.6688
3.64355
3.60368
3.54709
3.47633
3.39226
3.29903
3.20113
3.10322
3.00664
2.91578
2.83091
2.74959
2.67958
2.61975
2.55866
2.50834
2.44236
2.38668
2.34493
2.30234
2.26109
2.20462
2.14109
2.09696
2.07998
2.08779
2.09657
2.13797
2.25865
2.46277
2.66876
3.1644
3.46508
3.46809
3.38868
3.32263
3.31685
3.32747
3.32748
3.31947
3.30509
3.28882
3.26268
3.23829
3.21912
3.20053
3.18231
3.16347
3.14495
3.12586
3.10637
3.08668
3.06658
3.04642
3.02572
3.00473
2.98363
2.96279
2.94203
2.92112
2.89991
2.87814
2.85576
2.83282
2.80924
2.78495
2.7598
2.73318
2.70088
2.65444
4.70824
4.51895
4.33067
4.11272
3.87279
3.71196
3.58374
3.43695
3.32576
3.22316
3.12174
3.0129
2.88931
2.76333
2.65737
2.5806
2.49239
2.41769
2.3483
2.29406
2.25395
2.24769
2.28053
2.42873
2.64944
3.32786
3.72223
3.72426
3.71552
3.70126
3.68285
3.654
3.61059
3.55025
3.47836
3.39779
3.31212
3.222
3.13165
3.04404
2.95133
2.87018
2.80463
2.73522
2.66728
2.6073
2.53431
2.48727
2.43213
2.37444
2.3142
2.25744
2.21359
2.16643
2.11793
2.09768
2.0599
2.07622
2.11072
2.17731
2.31745
2.53453
2.80864
3.25255
3.44934
3.46075
3.34519
3.27037
3.26509
3.28737
3.28797
3.27759
3.26475
3.23763
3.20715
3.1897
3.17684
3.16359
3.14836
3.13118
3.10983
3.08576
3.06492
3.0447
3.02442
3.00455
2.98448
2.96456
2.9445
2.92411
2.90323
2.88154
2.85893
2.83539
2.81081
2.78531
2.75903
2.73149
2.69864
2.65067
4.72611
4.55676
4.38145
4.18768
3.93945
3.7626
3.64882
3.49947
3.37622
3.2817
3.19132
3.09541
2.97232
2.84088
2.7283
2.63756
2.56479
2.47034
2.3774
2.32681
2.314
2.33844
2.46602
2.66855
3.34485
3.77261
3.77359
3.7615
3.74107
3.72787
3.71259
3.68981
3.65635
3.61053
3.55327
3.48698
3.41327
3.33288
3.25104
3.15989
3.06965
2.99328
2.91688
2.83972
2.76755
2.68605
2.62864
2.56715
2.49961
2.4358
2.38036
2.32266
2.27501
2.23002
2.18749
2.14018
2.09916
2.073
2.0699
2.07193
2.11501
2.20167
2.35998
2.53399
3.04109
3.41248
3.42698
3.3909
3.29213
3.24072
3.24381
3.24359
3.23886
3.22615
3.2104
3.18782
3.17047
3.15782
3.14482
3.12897
3.11037
3.0888
3.06468
3.04425
3.02444
3.00468
2.98442
2.96416
2.94392
2.92348
2.90252
2.88059
2.8576
2.83378
2.80894
2.78314
2.75644
2.7283
2.69516
2.64628
4.70966
4.58489
4.43809
4.27397
4.03152
3.817
3.70607
3.56675
3.4261
3.33161
3.24637
3.15624
3.04763
2.91959
2.80658
2.70715
2.63582
2.5029
2.43104
2.40013
2.40954
2.51025
2.71472
3.36505
3.84655
3.85007
3.84266
3.80235
3.77971
3.76837
3.7564
3.73988
3.71449
3.67884
3.63042
3.57092
3.5021
3.42631
3.34655
3.25594
3.17796
3.09702
3.00927
2.92444
2.84175
2.77192
2.70716
2.63106
2.56852
2.50659
2.44577
2.39086
2.34299
2.28308
2.23265
2.18469
2.15154
2.10312
2.08807
2.05828
2.05344
2.05929
2.10851
2.23986
2.42861
2.64307
3.12312
3.39548
3.39293
3.32728
3.23352
3.18787
3.19352
3.19556
3.19442
3.18841
3.17683
3.15918
3.13888
3.12135
3.10533
3.08809
3.068
3.04141
3.0181
2.99767
2.97736
2.95669
2.9361
2.91536
2.89394
2.87172
2.84861
2.82494
2.80045
2.77515
2.74918
2.72173
2.68933
2.63934
4.71123
4.59092
4.45658
4.32426
4.13381
3.88918
3.75139
3.64005
3.47921
3.37107
3.29077
3.21356
3.10472
2.9837
2.87635
2.78834
2.69482
2.57518
2.5039
2.49761
2.57012
2.80615
3.34243
3.96994
3.98454
3.97068
3.93428
3.87871
3.84569
3.82683
3.80968
3.79079
3.76629
3.73327
3.69083
3.63819
3.57538
3.50523
3.42854
3.34836
3.2678
3.17536
3.08828
3.00087
2.92612
2.85658
2.77425
2.7076
2.64542
2.58446
2.52669
2.47332
2.41393
2.35758
2.31005
2.26391
2.22324
2.18202
2.14811
2.09426
2.04082
2.02634
2.04261
2.06214
2.12453
2.2671
2.47464
2.84789
3.26478
3.35925
3.35575
3.24458
3.1739
3.16387
3.1657
3.16827
3.16974
3.16219
3.14909
3.12527
3.10142
3.08205
3.06202
3.04077
3.01813
2.99426
2.97217
2.95025
2.92884
2.90814
2.88663
2.86385
2.8401
2.81581
2.79128
2.76631
2.74049
2.7128
2.67967
2.62827
4.5896
4.61346
4.49472
4.36009
4.20923
3.97612
3.79287
3.69598
3.54438
3.4094
3.32652
3.25654
3.16833
3.02895
2.91585
2.84615
2.73769
2.65912
2.6333
2.66723
2.88942
3.29893
4.05091
4.12076
4.1181
4.08783
4.00546
3.94939
3.90967
3.87789
3.85219
3.82796
3.80162
3.77002
3.73131
3.68455
3.62965
3.56697
3.49786
3.42247
3.33861
3.25609
3.17352
3.09303
3.015
2.92839
2.85405
2.78432
2.71987
2.65336
2.59084
2.52954
2.47064
2.41813
2.36423
2.31892
2.26678
2.22583
2.18241
2.14605
2.09441
2.05246
2.03174
2.00498
2.01414
2.05748
2.15368
2.33083
2.52461
3.01373
3.31153
3.3218
3.27942
3.1973
3.14825
3.14364
3.14627
3.14762
3.14429
3.12993
3.10951
3.08084
3.05501
3.0343
3.01378
2.99156
2.9686
2.94549
2.92285
2.90191
2.8805
2.85737
2.83374
2.80984
2.78491
2.75889
2.7314
2.70213
2.6672
2.61509
4.50956
4.57079
4.49301
4.37392
4.23501
4.06767
3.86306
3.74266
3.60542
3.46176
3.36468
3.28546
3.2124
3.09005
2.95672
2.87144
2.78825
2.77224
2.79856
2.98216
3.28412
4.07988
4.29345
4.29733
4.21743
4.12926
4.07628
4.02953
3.97993
3.93496
3.8973
3.86487
3.83288
3.79848
3.76019
3.71647
3.66715
3.61119
3.5489
3.48061
3.40729
3.33074
3.24926
3.16855
3.08541
3.00762
2.93211
2.85719
2.78746
2.72105
2.65602
2.59526
2.5339
2.47884
2.42677
2.37521
2.3279
2.28572
2.24492
2.20726
2.16309
2.11729
2.0474
2.02688
1.98369
1.98891
2.01614
2.08759
2.22402
2.41776
2.67532
3.12453
3.29783
3.28992
3.24459
3.16477
3.1153
3.11207
3.12101
3.1228
3.11224
3.09093
3.06242
3.03465
3.01168
2.98904
2.96551
2.94221
2.91847
2.89662
2.87621
2.85361
2.82805
2.80301
2.77755
2.75045
2.72085
2.68997
2.65364
2.60156
3.95353
4.46584
4.54896
4.44248
4.26111
4.11612
3.9356
3.78881
3.67005
3.51032
3.40198
3.32251
3.25593
3.17093
3.01519
2.91176
2.88316
2.91455
3.08223
3.35009
4.14884
4.46361
4.46452
4.35042
4.25597
4.20517
4.15592
4.10142
4.03968
3.98328
3.93489
3.8931
3.85617
3.81958
3.78144
3.73985
3.69422
3.64392
3.58868
3.52759
3.46143
3.38955
3.31447
3.23578
3.15729
3.08013
3.00252
2.92802
2.85711
2.78638
2.72119
2.65579
2.59687
2.53384
2.48219
2.43605
2.39084
2.33972
2.30294
2.26521
2.22344
2.14976
2.09428
2.06592
2.02242
1.99869
2.00015
2.00741
2.03504
2.10858
2.26966
2.46409
2.89829
3.23764
3.27294
3.25844
3.17342
3.11664
3.08611
3.09221
3.09413
3.08238
3.05966
3.0366
3.00956
2.98197
2.95624
2.93614
2.91699
2.89476
2.87273
2.8499
2.82331
2.79579
2.76898
2.74139
2.71073
2.67879
2.64201
2.58961
2.97329
4.30385
4.40266
4.39733
4.27955
4.15006
3.99517
3.83009
3.72965
3.57383
3.43972
3.36535
3.30792
3.20876
3.09654
3.02146
3.03231
3.17494
3.41927
4.23267
4.66295
4.66545
4.50635
4.38905
4.32941
4.27403
4.2188
4.15846
4.0978
4.03918
3.98406
3.93389
3.88871
3.84692
3.80544
3.76252
3.71749
3.66984
3.61845
3.56329
3.503
3.43826
3.36908
3.29638
3.22153
3.14466
3.06887
2.99475
2.91995
2.84871
2.77723
2.71036
2.64688
2.5884
2.53074
2.48562
2.44141
2.39965
2.35742
2.31438
2.26407
2.20331
2.16
2.12286
2.09207
2.05612
2.01892
1.97551
1.96791
1.99471
2.05741
2.17503
2.34767
2.54896
2.99594
3.24064
3.24388
3.20867
3.13382
3.08214
3.05789
3.05834
3.05092
3.03264
3.00997
2.97647
2.94664
2.92539
2.90995
2.89241
2.86914
2.84368
2.81525
2.78439
2.75615
2.72892
2.69981
2.6681
2.63041
2.57762
1.90786
3.44784
4.38084
4.41875
4.32217
4.19808
4.05777
3.88788
3.77777
3.66103
3.51623
3.42202
3.35033
3.248
3.18944
3.18463
3.30775
3.54378
4.33047
4.87082
4.87929
4.69251
4.54373
4.46958
4.40327
4.33937