/*--------------------------------*- C++ -*----------------------------------*\
| =========                 |                                                 |
| \\      /  F ield         | OpenFOAM: The Open Source CFD Toolbox           |
|  \\    /   O peration     | Version:  v2106                                 |
|   \\  /    A nd           | Website:  www.openfoam.com                      |
|    \\/     M anipulation  |                                                 |
\*---------------------------------------------------------------------------*/
FoamFile
{
    version     2.0;
    format      ascii;
    arch        "LSB;label=32;scalar=64";
    class       volScalarField;
    location    "11";
    object      T;
}
// * * * * * * * * * * * * * * * * * * * * * * * * * * * * * * * * * * * * * //

dimensions      [0 0 0 1 0 0 0];

internalField   nonuniform List<scalar> 
5250
(
1
1
1
1
1
1
1
1
1.00001
1.00011
1.00094
1.00837
1.06806
1.36169
2.153
2.80558
2.39455
2.32502
2.36611
2.36358
2.36765
2.37531
2.37526
2.37068
2.36048
1
1
1
1
1
1
1
1
1.00001
1.0001
1.0009
1.00792
1.06497
1.35017
2.08585
2.81691
2.38283
2.31245
2.35598
2.35401
2.35936
2.36931
2.37037
2.36672
2.35742
1
1
1
1
1
1
1
1
1.00001
1.00009
1.00083
1.0073
1.06054
1.33397
2.05175
2.85899
2.36376
2.28989
2.33637
2.33635
2.34342
2.3557
2.35885
2.3563
2.34807
1
1
1
1
1
1
1
1
1.00001
1.00008
1.00075
1.00651
1.05469
1.31155
2.00416
2.94641
2.35786
2.27171
2.31604
2.31689
2.32594
2.34009
2.3465
2.34527
2.33862
1
1
1
1
1
1
1
1
1.00001
1.00007
1.00065
1.00563
1.0479
1.28397
1.94471
3.04043
2.38483
2.27865
2.31681
2.30528
2.30721
2.31594
2.32763
2.32955
2.32476
1
1
1
1
1
1
1
1
1.00001
1.00006
1.00053
1.00455
1.0405
1.25213
1.87853
3.08141
2.44338
2.30694
2.33085
2.31173
2.30335
2.30444
2.30891
2.31089
2.30615
1
1
1
1
1
1
1
1
1
1.00004
1.00039
1.00354
1.03288
1.21613
1.79889
3.14827
2.54162
2.36101
2.36287
2.32979
2.30784
2.28829
2.28599
2.2892
2.28188
1
1
1
1
1
1
1
1
1
1.00004
1.00033
1.00299
1.02735
1.18796
1.71949
3.12332
2.5795
2.42411
2.40775
2.36127
2.31839
2.28753
2.2637
2.26029
2.24337
1
1
1
1
1
1
1
1
1
1.00003
1.00026
1.00233
1.0215
1.15587
1.63619
3.02817
2.56527
2.47872
2.46072
2.40916
2.34064
2.28536
2.2323
2.22702
2.18031
1
1
1
1
1
1
1
1
1
1.00002
1.00021
1.00187
1.01754
1.13101
1.55077
2.87403
2.49719
2.4905
2.47748
2.44224
2.38108
2.30198
2.21459
2.18501
2.04264
1
1
1
1
1
1
1
1
1
1.00002
1.00015
1.00134
1.01237
1.09729
1.46321
2.71781
2.52409
2.44073
2.44174
2.43546
2.39508
2.31523
2.19186
2.06154
1.7834
1
1
1
1
1
1
1
1
1
1.00001
1.00009
1.00087
1.00767
1.06548
1.37767
2.54713
2.58372
2.37717
2.3819
2.4038
2.3881
2.33018
2.21249
2.07722
1.70084
1
1
1
1
1
1
1
1
1
1.00001
1.00007
1.00061
1.00523
1.04512
1.27318
1.96208
2.68849
2.26374
2.29624
2.35275
2.35994
2.32368
2.22552
2.10288
1.73693
1
1
1
1
1
1
1
1
1
1
1.00004
1.00036
1.00318
1.02958
1.20077
1.75998
2.86949
2.27085
2.23812
2.28569
2.31948
2.2957
2.22018
2.11279
1.81625
1
1
1
1
1
1
1
1
1
1
1.00003
1.00026
1.00226
1.0205
1.14711
1.59037
2.88083
2.28675
2.24053
2.23174
2.26008
2.25187
2.20488
2.1217
1.92276
1
1
1
1
1
1
1
1
1
1
1.00002
1.00016
1.00133
1.01193
1.09022
1.44472
2.75748
2.43618
2.20416
2.14943
2.17115
2.19654
2.17619
2.116
1.98169
1
1
1
1
1
1
1
1
1
1
1.00003
1.00003
1.00051
1.00473
1.04286
1.30742
2.38989
2.63203
2.23296
2.13722
2.14404
2.15658
2.14111
2.09943
2.00333
1
1
1
1
1
1
1
1
1
1
1.00001
1.00004
1.00038
1.00327
1.02884
1.19668
1.76099
2.83634
2.25727
2.18391
2.11676
2.11614
2.10165
2.07022
1.99994
1
1
1
1
1
1
1
1
1
1
1
1.00002
1.00021
1.00181
1.01574
1.11485
1.5248
2.78828
2.35187
2.2008
2.09569
2.07283
2.05532
2.03154
1.9838
1
1
1
1
1
1
1
1
1
1
1
1.00001
1.00008
1.00079
1.00695
1.06044
1.36592
2.53318
2.50004
2.18937
2.069
2.05425
2.03649
2.00945
1.96535
1
1
1
1
1
1
1
1
1
1
1
1.00001
1.00005
1.00041
1.00343
1.02804
1.18112
1.79734
2.75031
2.20624
2.13122
2.05019
2.02369
1.99426
1.95268
1
1
1
1
1
1
1
1
1
1
1
1
1.00006
1.00004
1.00137
1.01063
1.08742
1.52852
2.6281
2.35435
2.11762
2.03192
2.00492
1.97488
1.9378
1
1
1
1
1
1
1
1
1
1
1
1
1.00001
1.00008
1.00065
1.00524
1.04151
1.24966
2.18431
2.59199
2.13463
2.0715
2.00464
1.96496
1.92434
1
1
1
1
1
1
1
1
1
1
1
1
1.00001
1.00008
1.00006
1.00156
1.01009
1.0938
1.68022
2.69225
2.25821
2.08756
1.99133
1.9537
1.91575
1
1
1
1
1
1
1
1
1
1
1
1
1
1.00001
1.00011
1.00088
1.00704
1.0548
1.30988
2.49627
2.45781
2.10082
2.00856
1.95548
1.91567
1
1
1
1
1
1
1
1
1
1
1
1
1
1.00001
1.0001
1.00009
1.00181
1.01396
1.11471
1.80234
2.70867
2.21476
2.05918
1.95532
1.91748
1
1
1
1
1
1
1
1
1
1
1
1
1
1
1.00002
1.00013
1.00102
1.00793
1.06037
1.33116
2.5005
2.40583
2.06096
1.97684
1.92582
1
1
1
1
1
1
1
1
1
1
1
1
1
1
1.00001
1.00009
1.00003
1.00186
1.01374
1.10729
1.79755
2.6685
2.18687
2.02106
1.92983
1
1
1
1
1
1
1
1
1
1
1
1
1
1
1
1.00002
1.00013
1.001
1.00754
1.05772
1.32946
2.45449
2.38386
2.03731
1.97179
1
1
1
1
1
1
1
1
1
1
1
1
1
1
1
1.00001
1.00005
0.999945
1.0014
1.01214
1.10023
1.72898
2.61617
2.19089
2.00255
1
1
1
1
1
1
1
1
1
1
1
1
1
1
1
1
1.00001
1.00009
1.00078
1.00627
1.0494
1.30088
2.36798
2.39741
2.0467
1
1
1
1
1
1
1
1
1
1
1
1
1
1
1
1
1
1.00003
1.00004
1.0012
1.01183
1.09662
1.61373
2.53649
2.2534
1
1
1
1
1
1
1
1
1
1
1
1
1
1
1
1
1
1.00001
1.00009
1.00076
1.00573
1.04388
1.27137
2.18753
2.49731
1
1
1
1
1
1
1
1
1
1
1
1
1
1
1
1
1
1
1.00002
1.00013
1.00097
1.00827
1.07722
1.44382
2.31841
1
1
1
1
1
1
1
1
1
1
1
1
1
1
1
1
1
1
1.00001
1.00006
1.00041
1.00379
1.01136
1.09053
1.69169
1
1
1
1
1
1
1
1
1
1
1
1
1
1
1
1
1
1
1
1.00001
1.00009
1.00083
1.00608
1.04568
1.28974
1
1
1
1
1
1
1
1
1
1
1
1
1
1
1
1
1
1
1
1
1.00003
1.00018
1.0014
1.00833
1.07538
1
1
1
1
1
1
1
1
1
1
1
1
1
1
1
1
1
1
1
0.999999
0.999983
1.00002
1.00042
1.00314
1.01924
1
1
1
1
1
1
1
1
1
1
1
1
1
1
1
1
1
1
1
1
1
1.00001
1.00008
1.00076
1.00563
1
1
1
1
1
1
1
1
1
1
1
1
1
1
1
1
1
1
1
1
1
1
1.00003
1.00019
1.00149
1
1
1
1
1
1
1
1
1
1
1
1
1
1
1
1
1
1
1
1
1
1
1
1.00005
1.00037
1
1
1
1
1
1
1
1
1
1
1
1
1
1
1
1
1
1
1
1
1
1
1
1.00001
0.999989
1
1
1
1
1
1
1
1
1
1
1
1
1
1
1
1
1
1
1
1
1
1
1
1
1.00003
1
1
1
1
1
1
1
1
1
1
1
1
1
1
1
1
1
1
1
1
1
1
1
1
1.00001
1
1
1
1
1
1
1
1
1
1
1
1
1
1
1
1
1
1
1
1
1
1
1
1
1
1
1
1
1
1
1
1
1
1
1
1
1
1
1
1
1
1
1
1
1
1
1
1
1
1
1
1
1
1
1
1
1
1
1
1
1
1
1
1
1
1
1
1
1
1
1
1
1
1
1
1
1
1
1
1
1
1
1
1
1
1
1
1
1
1
1
1
1
1
1
1
1
1
1
1
1
1
1
1
1
1
1
1
1
1
1
1
1
1
1
1
1
1
1
1
1
1
1
1
1
1
1
1
1
1
1
1
1
1
1
1
1
1
1
1
1
1
1
1
1
1
1
1
1
1
1.98246
2.23668
2.70191
2.65726
2.63251
2.68251
2.72492
2.7281
2.5227
2.44927
2.43731
2.44568
2.45252
2.45918
2.48301
2.41956
2.359
2.33082
2.32543
2.32548
2.33266
2.33555
2.33684
2.3358
2.33577
2.32609
2.31826
2.31485
2.31194
2.30984
2.30988
2.3046
2.31159
2.3178
2.34109
2.37117
2.40301
2.45089
2.49053
2.54634
2.57794
2.60319
2.63707
2.6671
2.69887
2.71275
2.72336
2.74059
2.74694
2.75372
2.75105
2.74266
2.73175
2.71929
2.70884
2.69591
2.68242
2.66773
2.65376
2.64072
2.62792
2.61477
2.60196
2.58989
2.57779
2.56611
2.55494
2.54388
2.53267
2.52193
2.51104
2.50107
2.49138
2.4822
2.47299
2.46392
2.45476
2.44577
2.43676
2.42799
2.41922
2.41078
2.40228
2.39416
2.3859
2.37814
2.37022
2.36296
2.35556
2.34891
2.34209
2.33614
2.33008
2.32455
2.31901
2.31324
2.30744
2.29755
2.29845
2.30645
2.02595
2.19315
2.36876
2.58005
2.65308
2.7196
2.83649
2.99159
2.78716
2.71502
2.70429
2.75122
2.76279
2.7769
2.78424
2.7089
2.66997
2.64986
2.65086
2.65692
2.66152
2.66586
2.66657
2.66534
2.66814
2.66406
2.66062
2.65879
2.6506
2.64788
2.64595
2.64355
2.64788
2.65265
2.66872
2.68975
2.7221
2.75943
2.78061
2.80651
2.81792
2.82289
2.80913
2.89344
2.86598
2.83608
2.83533
2.81174
2.78438
2.75277
2.71514
2.67828
2.64577
2.61395
2.58848
2.56254
2.53789
2.51256
2.48724
2.46551
2.44784
2.43073
2.41301
2.39648
2.38032
2.364
2.34771
2.33296
2.31812
2.30452
2.29081
2.27845
2.26714
2.25734
2.24799
2.2394
2.23083
2.22259
2.21431
2.20639
2.19845
2.19102
2.18366
2.1766
2.16951
2.16248
2.1553
2.14807
2.14063
2.13314
2.12543
2.1179
2.11023
2.10292
2.09557
2.08847
2.0815
2.07073
2.07099
2.07867
1.83493
1.98571
2.13549
2.37251
2.49568
2.56728
2.61146
2.74277
2.87718
2.88875
2.91287
2.89259
2.82847
2.85695
2.91095
2.96236
2.859
2.8166
2.80916
2.80493
2.82598
2.83821
2.8448
2.84568
2.84548
2.83838
2.82741
2.82752
2.82822
2.82521
2.82862
2.82072
2.82749
2.83756
2.84796
2.87879
2.88886
2.90526
2.99352
2.96455
2.93204
2.90001
2.85402
2.80064
2.72115
2.65088
2.59552
2.54853
2.50232
2.45628
2.41901
2.38911
2.35782
2.33196
2.3115
2.29188
2.27523
2.25787
2.24013
2.22211
2.20739
2.19463
2.18149
2.16886
2.15747
2.14623
2.13461
2.12297
2.1119
2.10111
2.09012
2.07993
2.07028
2.06172
2.0535
2.04612
2.03886
2.03187
2.02485
2.01804
2.01119
2.0049
1.99868
1.99276
1.98677
1.98097
1.9751
1.96948
1.96384
1.95831
1.95276
1.94724
1.94167
1.93606
1.93038
1.92457
1.91835
1.90884
1.90654
1.91282
1.71326
1.77572
1.86492
2.03263
2.22627
2.37392
2.38255
2.43219
2.55174
2.68982
2.76032
2.83131
2.82343
2.80088
2.78652
2.85777
2.89423
2.89467
2.90059
2.89205
2.88318
2.84634
2.80935
2.82294
2.82789
2.82856
2.8262
2.82598
2.82558
2.8197
2.82037
2.8253
2.84569
2.87281
2.92543
2.97957
2.98155
2.95052
2.87655
2.77763
2.65194
2.56648
2.48153
2.42957
2.37996
2.33701
2.2965
2.26804
2.23197
2.21779
2.20119
2.18275
2.16573
2.14761
2.13306
2.11924
2.10807
2.09676
2.08596
2.07506
2.06262
2.05157
2.04105
2.03207
2.024
2.01558
2.00654
1.997
1.98785
1.97923
1.97079
1.96225
1.95428
1.94688
1.93948
1.9323
1.92529
1.91882
1.91251
1.90665
1.90091
1.8956
1.89048
1.88543
1.88036
1.87527
1.87012
1.86491
1.85966
1.85439
1.84926
1.84415
1.83915
1.83417
1.82914
1.82404
1.81853
1.81046
1.80724
1.8139
1.74007
1.71399
1.74413
1.82628
1.93463
2.07868
2.14392
2.11511
2.20571
2.33574
2.459
2.56863
2.66692
2.67816
2.66825
2.67647
2.71481
2.75983
2.79768
2.83338
2.84938
2.84439
2.83293
2.82584
2.81771
2.81046
2.8165
2.81409
2.81315
2.80773
2.80849
2.82802
2.85149
2.87633
2.86011
2.80391
2.72424
2.61484
2.47743
2.40762
2.32833
2.27672
2.21131
2.17468
2.13376
2.10618
2.09854
2.08882
2.07302
2.06942
2.06083
2.05316
2.04069
2.03254
2.0227
2.0163
2.00868
2.0003
1.98909
1.98192
1.97512
1.96739
1.9595
1.95053
1.94198
1.93489
1.92794
1.92083
1.91351
1.90595
1.89808
1.89115
1.88427
1.87729
1.87047
1.864
1.85787
1.85188
1.84591
1.83993
1.83375
1.82798
1.82312
1.81865
1.81431
1.81
1.80567
1.80124
1.79669
1.79195
1.78707
1.78206
1.7771
1.77224
1.76736
1.76244
1.75717
1.74998
1.74576
1.75251
1.80678
1.72062
1.71515
1.75044
1.7977
1.86064
1.9276
1.89758
1.97011
2.08541
2.18337
2.27082
2.37248
2.43216
2.44043
2.46289
2.50889
2.56464
2.61179
2.65936
2.70799
2.73276
2.75646
2.76637
2.77753
2.77761
2.78148
2.78095
2.78305
2.7944
2.79726
2.79887
2.7887
2.75299
2.66864
2.54055
2.38856
2.26782
2.16201
2.11953
2.07497
2.06176
2.0275
1.99894
1.97188
1.97304
1.97649
1.97179
1.96755
1.97206
1.97715
1.97402
1.96576
1.95671
1.95213
1.94794
1.94306
1.93809
1.93162
1.9245
1.91876
1.91077
1.90394
1.89725
1.89072
1.88472
1.87858
1.87211
1.86537
1.85902
1.85266
1.84607
1.83916
1.83221
1.82586
1.81981
1.81396
1.80815
1.80232
1.79643
1.79047
1.78552
1.78114
1.77679
1.77256
1.76833
1.76411
1.75982
1.75545
1.75096
1.74638
1.74171
1.73696
1.73218
1.72736
1.72248
1.71727
1.71066
1.70508
1.71161
1.88321
1.76453
1.71905
1.71578
1.73072
1.74751
1.7741
1.74597
1.74927
1.80565
1.89399
1.96714
2.04352
2.11159
2.16823
2.19406
2.24276
2.29891
2.36154
2.41351
2.47337
2.51795
2.56477
2.59802
2.63552
2.65599
2.68649
2.69698
2.71396
2.74732
2.74259
2.7252
2.67885
2.56874
2.39364
2.19074
2.05804
1.95385
1.90174
1.86197
1.85533
1.86168
1.86592
1.88321
1.90357
1.92409
1.91648
1.9083
1.89823
1.90218
1.90693
1.91827
1.91771
1.91504
1.90888
1.90082
1.89577
1.8956
1.89412
1.89001
1.88361
1.87471
1.86949
1.86405
1.85917
1.85394
1.8483
1.84226
1.83584
1.82907
1.82251
1.81625
1.81018
1.80419
1.7981
1.79224
1.78674
1.78133
1.77588
1.7704
1.76491
1.75994
1.75541
1.75093
1.7467
1.74253
1.73844
1.7343
1.7301
1.72576
1.72125
1.71652
1.71153
1.70635
1.70117
1.69598
1.69055
1.68391
1.67807
1.68456
1.91539
1.82216
1.74983
1.72059
1.72299
1.71671
1.70751
1.68604
1.65702
1.66725
1.71301
1.77837
1.82935
1.88021
1.93401
1.93617
1.95421
1.99891
2.05702
2.11399
2.19241
2.23986
2.29551
2.3439
2.40156
2.44037
2.49543
2.52173
2.56209
2.64461
2.62945
2.55694
2.43402
2.26001
2.0528
1.91745
1.83567
1.7662
1.73208
1.69823
1.70156
1.7044
1.71166
1.73004
1.75613
1.7889
1.83416
1.90263
1.89343
1.87878
1.86196
1.86149
1.86742
1.88509
1.87914
1.87297
1.87045
1.86747
1.86417
1.86212
1.85973
1.85632
1.85118
1.84449
1.83848
1.83495
1.83079
1.82526
1.81815
1.81066
1.80566
1.80049
1.79474
1.78808
1.78183
1.77677
1.77186
1.76691
1.76186
1.7565
1.75081
1.74569
1.74119
1.73667
1.73228
1.72795
1.72364
1.71929
1.71485
1.71026
1.70547
1.70044
1.69512
1.68958
1.68422
1.67905
1.67368
1.66735
1.6612
1.6676
1.9212
1.8606
1.79569
1.75245
1.72889
1.71693
1.70087
1.67273
1.64033
1.60815
1.61467
1.64301
1.68044
1.71323
1.73598
1.76063
1.75585
1.78143
1.82291
1.87271
1.91802
1.96688
2.01523
2.06123
2.11237
2.16391
2.22699
2.28271
2.40551
2.45834
2.42496
2.32002
2.17255
1.97756
1.82463
1.74717
1.7071
1.66566
1.64445
1.624
1.6123
1.60674
1.60512
1.61494
1.63177
1.6583
1.70001
1.75049
1.80987
1.90775
1.8827
1.83536
1.83753
1.84124
1.84795
1.86165
1.86365
1.85924
1.85271
1.8453
1.84556
1.84449
1.8414
1.83814
1.83266
1.82727
1.82188
1.81562
1.8093
1.80371
1.79855
1.79289
1.78658
1.78121
1.77638
1.77153
1.76662
1.76147
1.75597
1.74988
1.74336
1.73906
1.73521
1.7312
1.72708
1.72279
1.71836
1.71374
1.70892
1.7039
1.69868
1.6933
1.68777
1.68216
1.67676
1.67138
1.66576
1.65915
1.65204
1.65808
1.91245
1.86904
1.82021
1.79084
1.7493
1.73096
1.70737
1.67563
1.63855
1.60541
1.57955
1.58518
1.60335
1.61829
1.62927
1.64292
1.63931
1.64316
1.65572
1.68214
1.71523
1.74843
1.78309
1.81925
1.8563
1.89779
1.95078
2.02013
2.22908
2.31075
2.2055
2.09346
1.95314
1.79898
1.723
1.67833
1.64546
1.61362
1.59398
1.58048
1.56651
1.55197
1.54308
1.54746
1.55247
1.56689
1.59243
1.62584
1.68024
1.75627
1.84622
1.90329
1.87432
1.84346
1.83146
1.83288
1.84308
1.84109
1.84119
1.84029
1.83851
1.83708
1.83459
1.8315
1.82721
1.81994
1.81301
1.80667
1.80168
1.79698
1.79211
1.78684
1.78063
1.77549
1.77078
1.7659
1.76082
1.75556
1.75004
1.7438
1.73891
1.73551
1.73194
1.72803
1.72382
1.71933
1.71459
1.70967
1.70459
1.69939
1.69405
1.68853
1.68278
1.67693
1.67139
1.66588
1.66011
1.65334
1.64586
1.65184
1.90018
1.86414
1.82742
1.80215
1.77316
1.75192
1.72293
1.68913
1.65127
1.61413
1.58258
1.56677
1.57275
1.58658
1.58822
1.59067
1.59037
1.58343
1.58281
1.58892
1.60585
1.6317
1.65246
1.67604
1.70428
1.74548
1.80433
1.92957
2.19126
2.12604
2.04463
1.94962
1.83883
1.74151
1.689
1.65053
1.61323
1.58604
1.56462
1.54307
1.52706
1.52171
1.5198
1.51678
1.51295
1.51724
1.528
1.5459
1.57872
1.62432
1.68383
1.76826
1.90027
1.88197
1.82513
1.82234
1.81261
1.81482
1.82126
1.82608
1.82191
1.81847
1.8151
1.81102
1.80863
1.8046
1.79929
1.79349
1.7875
1.78194
1.7763
1.77092
1.76516
1.76066
1.75668
1.75221
1.74711
1.7417
1.73627
1.73043
1.72614
1.72309
1.71972
1.71592
1.71183
1.70757
1.70317
1.69871
1.69416
1.68947
1.68459
1.67948
1.67414
1.66868
1.66327
1.65784
1.65212
1.64532
1.63765
1.64375
1.89091
1.85266
1.82256
1.79999
1.7827
1.76213
1.73968
1.71117
1.67498
1.6322
1.59971
1.56672
1.56114
1.56587
1.57097
1.57086
1.56547
1.55243
1.54767
1.53892
1.54141
1.55433
1.57171
1.58947
1.61658
1.66015
1.7499
1.91722
2.17102
2.03359
1.96134
1.88202
1.79656
1.7461
1.70174
1.65641
1.61939
1.58757
1.55911
1.53278
1.5193
1.5072
1.49839
1.50077
1.49869
1.49799
1.50183
1.50636
1.51499
1.52954
1.56102
1.61545
1.68736
1.78141
1.8898
1.85002
1.81766
1.78003
1.78712
1.7892
1.79607
1.79327
1.79032
1.78572
1.78192
1.77768
1.77419
1.77049
1.76651
1.76134
1.75351
1.74802
1.7445
1.74093
1.73694
1.73219
1.72666
1.72115
1.71653
1.71209
1.70842
1.7051
1.70154
1.69766
1.69361
1.68955
1.68547
1.68144
1.67736
1.67322
1.66896
1.66454
1.65995
1.65525
1.65044
1.64549
1.64011
1.63352
1.62606
1.63264
1.88266
1.84363
1.8146
1.79567
1.78067
1.76162
1.7474
1.72588
1.69554
1.65918
1.62461
1.58933
1.56316
1.56236
1.56301
1.55851
1.55348
1.54721
1.53627
1.51736
1.50922
1.51424
1.52939
1.54627
1.57848
1.64735
1.78761
2.09398
2.04553
1.9734
1.91936
1.85408
1.79665
1.75989
1.72124
1.68135
1.65078
1.6214
1.59451
1.57322
1.55625
1.53871
1.52366
1.50765
1.48844
1.48858
1.4913
1.48919
1.48255
1.48203
1.49092
1.50884
1.54812
1.61433
1.70546
1.85136
1.84685
1.79054
1.78522
1.76309
1.7676
1.76931
1.77194
1.77093
1.76838
1.76486
1.7604
1.75689
1.75274
1.74836
1.74283
1.7352
1.73152
1.72818
1.72427
1.71975
1.71474
1.70961
1.70431
1.70038
1.69677
1.69304
1.68917
1.68516
1.68111
1.67703
1.67293
1.66879
1.66455
1.66019
1.65566
1.65099
1.64622
1.6414
1.63652
1.63156
1.62623
1.61978
1.61259
1.61977
1.87807
1.84054
1.80701
1.7888
1.77106
1.75656
1.74522
1.72795
1.7063
1.68071
1.64843
1.61738
1.58593
1.5684
1.5622
1.55957
1.55516
1.54675
1.53422
1.5213
1.50234
1.50541
1.51716
1.53713
1.59078
1.70677
1.92608
2.05333
1.95071
1.92891
1.89088
1.84449
1.80992
1.77597
1.74075
1.70854
1.67907
1.65188
1.62658
1.60522
1.58548
1.56553
1.54639
1.52421
1.51246
1.49949
1.48302
1.46883
1.46627
1.46219
1.45616
1.45648
1.47012
1.50112
1.54929
1.62848
1.73122
1.87052
1.83323
1.79648
1.74834
1.74843
1.75172
1.75973
1.75822
1.7555
1.75059
1.74575
1.74071
1.73561
1.73037
1.72454
1.71785
1.71438
1.71087
1.70698
1.70289
1.69861
1.694
1.68856
1.68263
1.67867
1.67483
1.67094
1.66702
1.66303
1.65894
1.65467
1.65019
1.64553
1.64071
1.63573
1.6306
1.62531
1.62034
1.61565
1.61073
1.60474
1.59806
1.60575
1.87559
1.839
1.80086
1.78312
1.76596
1.74777
1.73784
1.72533
1.70953
1.68938
1.66364
1.63401
1.61218
1.58787
1.56887
1.56317
1.55743
1.54876
1.53986
1.52851
1.50776
1.51394
1.52441
1.55918
1.65303
1.82905
2.06308
1.9784
1.93447
1.91055
1.88232
1.85407
1.82539
1.79543
1.76371
1.73449
1.70582
1.67927
1.65436
1.63175
1.61006
1.58828
1.56942
1.55015
1.53057
1.50959
1.48726
1.4731
1.46004
1.44569
1.44209
1.43543
1.44026
1.44746
1.46504
1.50693
1.5733
1.6596
1.79722
1.83838
1.7906
1.7721
1.72878
1.73497
1.73872
1.74705
1.74625
1.74517
1.73899
1.73036
1.72606
1.7216
1.71725
1.71275
1.70913
1.70608
1.70244
1.69788
1.69257
1.68693
1.68082
1.67527
1.67061
1.66581
1.66092
1.65624
1.65182
1.64745
1.64302
1.6385
1.6338
1.62889
1.62385
1.61872
1.61367
1.60858
1.60321
1.59673
1.58931
1.59694
1.8777
1.84063
1.79877
1.77932
1.76542
1.74453
1.73132
1.72136
1.70713
1.68908
1.66769
1.64315
1.6206
1.60621
1.58602
1.56408
1.56163
1.55679
1.54746
1.52916
1.52776
1.53457
1.55398
1.62338
1.77564
2.06121
1.99459
1.92008
1.90905
1.89517
1.87882
1.85968
1.83729
1.81279
1.78575
1.75743
1.73029
1.70347
1.67812
1.65286
1.63009
1.60977
1.58836
1.56568
1.54532
1.52136
1.50687
1.49205
1.47533
1.45865
1.43907
1.42908
1.43041
1.43494
1.43928
1.44825
1.47013
1.51762
1.59436
1.68327
1.82573
1.81214
1.76715
1.74919
1.72461
1.73319
1.73536
1.73728
1.73579
1.73087
1.72458
1.71521
1.71131
1.70934
1.70692
1.70399
1.70001
1.69485
1.68903
1.68321
1.67775
1.67232
1.66685
1.66126
1.65612
1.65142
1.64699
1.64256
1.63813
1.6336
1.6289
1.624
1.61895
1.61376
1.60845
1.60305
1.59732
1.59047
1.58229
1.58992
1.88256
1.84304
1.79966
1.7746
1.76477
1.746
1.72631
1.71882
1.70615
1.68995
1.67014
1.64515
1.62591
1.6114
1.5944
1.57076
1.56371
1.5568
1.55126
1.54579
1.55138
1.56492
1.62059
1.74789
2.01949
1.98343
1.91198
1.90399
1.89514
1.88802
1.87829
1.86439
1.84642
1.82474
1.80133
1.77573
1.74857
1.72113
1.69423
1.66723
1.64613
1.62495
1.60138
1.57955
1.55915
1.53812
1.52513
1.50841
1.48975
1.47435
1.46133
1.45076
1.437
1.42755
1.42811
1.42399
1.42934
1.44685
1.47467
1.52505
1.60623
1.706
1.83276
1.80238
1.77
1.71474
1.71029
1.71811
1.72626
1.72468
1.72165
1.71477
1.70496
1.69838
1.69851
1.69705
1.69417
1.68957
1.68376
1.67667
1.67035
1.66613
1.6614
1.65634
1.6512
1.64609
1.64125
1.63645
1.6317
1.62687
1.62192
1.61678
1.61155
1.60622
1.60079
1.59528
1.58948
1.58258
1.57419
1.58202
1.89162
1.85005
1.80608
1.77386
1.76588
1.74988
1.72476
1.71743
1.70759
1.69215
1.67213
1.64572
1.62538
1.6116
1.5958
1.57736
1.55925
1.55175
1.55653
1.56627
1.57853
1.62657
1.73924
1.99031
1.9834
1.9184
1.90685
1.8943
1.88957
1.88406
1.87683
1.86589
1.85076
1.83139
1.80908
1.78476
1.75907
1.73258
1.7054
1.68175
1.66026
1.63712
1.61478
1.59471
1.57403
1.56018
1.54257
1.52349
1.50668
1.49274
1.47795
1.46444
1.45048
1.43697
1.42276
1.41676
1.41531
1.41869
1.41967
1.43654
1.47841
1.54277
1.6362
1.79584
1.80112
1.74458
1.73366
1.69537
1.69879
1.70733
1.70891
1.70797
1.70437
1.6986
1.69182
1.68875
1.68557
1.68172
1.67713
1.67147
1.66521
1.65865
1.65455
1.65004
1.64535
1.64061
1.63606
1.63151
1.62688
1.622
1.61686
1.61147
1.60602
1.60049
1.59467
1.58864
1.58223
1.57476
1.56586
1.57361
1.90515
1.86031
1.81359
1.77297
1.76403
1.7544
1.72788
1.71593
1.70921
1.69502
1.67545
1.64958
1.627
1.61207
1.59553
1.57783
1.55083
1.5554
1.56668
1.58142
1.62658
1.7315
1.96055
2.00116
1.92945
1.91471
1.89296
1.88744
1.88137
1.87378
1.86477
1.8538
1.84038
1.82466
1.80573
1.78464
1.76181
1.73785
1.71192
1.69177
1.66984
1.64657
1.62664
1.60689
1.59076
1.57302
1.55352
1.53858
1.52188
1.50528
1.49021
1.47449
1.45691
1.44721
1.4363
1.427
1.41321
1.41243
1.40351
1.40568
1.41486
1.44074
1.49217
1.5706
1.65801
1.80732
1.78671
1.74617
1.71957
1.68483
1.6888
1.69717
1.69698
1.69536
1.69115
1.6856
1.67795
1.67217
1.66886
1.66504
1.66051
1.65437
1.64756
1.64464
1.64157
1.63798
1.63396
1.62969
1.62526
1.62034
1.61496
1.60929
1.60331
1.59707
1.5904
1.58342
1.57603
1.56757
1.5575
1.56519
1.91477
1.8756
1.83069
1.78275
1.75784
1.75352
1.73272
1.70991
1.70779
1.69805
1.6796
1.65184
1.63127
1.61597
1.59851
1.57692
1.5528
1.5614
1.5794
1.61849
1.71523
1.89868
2.02524
1.93163
1.91811
1.89577
1.87528
1.87054
1.86507
1.85775
1.84929
1.83962
1.82864
1.81607
1.80162
1.78459
1.76514
1.74413
1.72128
1.69917
1.67617
1.65645
1.63683
1.62007
1.60167
1.58087
1.56669
1.55062
1.53393
1.5176
1.50187
1.48567
1.47225
1.46059
1.44819
1.43581
1.42328
1.41005
1.39374
1.39062
1.39647
1.3997
1.41549
1.44432
1.50244
1.59039
1.70564
1.78974
1.74325
1.72403
1.67707
1.67408
1.68158
1.6838
1.68341
1.68206
1.67819
1.67028
1.66007
1.65507
1.65173
1.64776
1.64343
1.63916
1.6355
1.63263
1.62944
1.62592
1.62206
1.61753
1.612
1.60606
1.59977
1.593
1.58566
1.57778
1.56961
1.56067
1.55034
1.55829
1.97379
1.88679
1.84482
1.79868
1.75963
1.75227
1.73844
1.70984
1.70282
1.69711
1.68237
1.65774
1.6301
1.62168
1.60857
1.5804
1.5724
1.58247
1.60624
1.69145
1.85544
2.05429
1.94997
1.93066
1.9026
1.8712
1.86715
1.86243
1.8562
1.84879
1.84003
1.83067
1.82087
1.81038
1.79871
1.78516
1.76951
1.75173
1.73223
1.71095
1.6893
1.66926
1.65009
1.63104
1.61079
1.59496
1.5782
1.56175
1.54466
1.52911
1.51317
1.49868
1.48543
1.47119
1.45971
1.4463
1.43648
1.42445
1.41149
1.39461
1.38597
1.38529
1.38365
1.38887
1.41365
1.4589
1.52765
1.61805
1.76438
1.75491
1.71009
1.69025
1.65503
1.65666
1.66368
1.66598
1.66593
1.66432
1.65861
1.65039
1.64173
1.63868
1.63685
1.63441
1.63147
1.62775
1.62413
1.62043
1.61653
1.61206
1.60649
1.60026
1.59388
1.58674
1.5787
1.57018
1.56206
1.55317
1.54315
1.55123
1.98809
1.91184
1.86261
1.8211
1.77466
1.75049
1.73868
1.7121
1.69914
1.69396
1.68273
1.66442
1.63727
1.62385
1.61554
1.59777
1.60339
1.61413
1.67539
1.81935
2.07078
1.99411
1.95691
1.90399
1.87994
1.87479
1.86709
1.85799
1.84979
1.84201
1.83378
1.82476
1.8157
1.80634
1.79633
1.78502
1.772
1.75691
1.73994
1.72129
1.70156
1.68133
1.66178
1.64227
1.62492
1.60719
1.58952
1.57317
1.55656
1.54027
1.52445
1.50873
1.49547
1.48274
1.46945
1.45813
1.44672
1.43525
1.42241
1.40692
1.3886
1.37266
1.3777
1.3723
1.37867
1.39272
1.42039
1.47028
1.54325
1.63233
1.76178
1.72649
1.69387
1.6634
1.63767
1.64044
1.64874
1.65369
1.65163
1.64692
1.63873
1.63086
1.62723
1.62505
1.62227
1.6192
1.61585
1.61243
1.60861
1.60416
1.59855
1.59124
1.58461
1.5778
1.56982
1.56108
1.55332
1.54486
1.53535
1.54341
2.11282
1.98678
1.87007
1.81628
1.78818
1.75651
1.73889
1.71474
1.69287
1.69204
1.68578
1.67182
1.64798
1.62193
1.62379
1.63065
1.63982
1.68749
1.80789
2.05913
2.01833
1.97304
1.91494
1.89506
1.88812
1.87702
1.86507
1.85368
1.84634
1.83923
1.83162
1.82323
1.81387
1.80426
1.79432
1.78378
1.77232
1.75923
1.74449
1.72796
1.71014
1.69099
1.67204
1.65379
1.63589
1.61797
1.60109
1.58438
1.56759
1.55206
1.5361
1.52203
1.5068
1.49547
1.48374
1.47104
1.45714
1.4466
1.43311
1.41466
1.38945
1.3851
1.38031
1.36934
1.36871
1.36986
1.36976
1.38689
1.42246
1.48311
1.56975
1.69543
1.72625
1.67978
1.66796
1.63492
1.63223
1.63524
1.64121
1.64014
1.63618
1.62798
1.62358
1.61678
1.61207
1.60932
1.60709
1.60394
1.59967
1.59409
1.58851
1.5816
1.57436
1.56777
1.56039
1.55178
1.5439
1.53578
1.52661
1.53473
2.19825
1.92176
1.88503
1.82234
1.79507
1.7646
1.74182
1.72108
1.69259
1.69075
1.68895
1.67752
1.65284
1.63313
1.6424
1.66226
1.70891
1.81744
2.05836
2.04191
1.99244
1.92449
1.91124
1.9072
1.89683
1.8836
1.86988
1.85901
1.84923
1.83983
1.83058
1.8211
1.81125
1.80108
1.79104
1.78088
1.7703
1.7588
1.74581
1.73135
1.71538
1.69859
1.68106
1.66332
1.64559
1.62858
1.61152
1.59429
1.57782
1.56091
1.54628
1.53195
1.51802
1.50354
1.49281
1.48048
1.46711
1.45234
1.4365
1.41775
1.40253
1.39579
1.38723
1.37819
1.36707
1.35699
1.35252
1.35968
1.36927
1.39598
1.43698
1.50209
1.58511
1.72744
1.70657
1.6647
1.64627
1.6171
1.61805
1.62196
1.62616
1.62468
1.61895
1.61109
1.60154
1.59798
1.59627
1.59367
1.58972
1.58364
1.57651
1.57013
1.56285
1.55671
1.54984
1.54193
1.53365
1.52534
1.51655
1.52486
2.48405
2.11975
1.90622
1.84138
1.81037
1.78011
1.75515
1.73735
1.70682
1.6922
1.68988
1.67983
1.66092
1.66266
1.67518
1.72118
1.83032
2.05413
2.08088
2.02429
1.94156
1.92313
1.92222
1.91397
1.90213
1.88881
1.87471
1.86121
1.84954
1.83865
1.82795
1.81758
1.80734
1.79735
1.78736
1.77719
1.76673
1.75569
1.74389
1.7311
1.71724
1.70245
1.68688
1.67083
1.65431
1.63774
1.6211
1.60442
1.58775
1.57071
1.55568
1.54119
1.52834
1.51415
1.50105
1.48863
1.47521
1.46102
1.44633
1.43009
1.41526
1.40511
1.39461
1.38473
1.37335
1.36523
1.35276
1.35274
1.35404
1.35529
1.36801
1.39664
1.44884
1.52738
1.61536
1.70223
1.66681
1.64614
1.62365
1.59892
1.60044
1.60404
1.6029
1.60024
1.59269
1.5878
1.58276
1.57986
1.57617
1.57109
1.56305
1.5562
1.54938
1.5437
1.53736
1.53024
1.52273
1.51502
1.50633
1.51466
2.29452
2.33378
1.99626
1.9
1.81634
1.79108
1.76861
1.74547
1.72719
1.69845
1.69163
1.68537
1.68775
1.69713
1.73662
1.84387
2.059
2.11431
2.05206
1.96435
1.937
1.93423
1.92563
1.91404
1.90112
1.888
1.87446
1.8606
1.84805
1.83625
1.82478
1.81359
1.80257
1.79234
1.78265
1.77292
1.76286
1.7525
1.74164
1.73014
1.71793
1.70488
1.69091
1.67628
1.66087
1.64509
1.62867
1.61185
1.5948
1.57728
1.56139
1.54641
1.53325
1.51997
1.50582
1.49221
1.47908
1.46581
1.45132
1.43446
1.42153
1.40859
1.39815
1.3891
1.37972
1.36967
1.3593
1.34585
1.34041
1.34156
1.34525
1.34938
1.37224
1.40752
1.47195
1.55102
1.693
1.68359
1.64339
1.62846
1.59634
1.58497
1.58596
1.5899
1.58884
1.58492
1.57988
1.57425
1.56742
1.56046
1.55316
1.54508
1.53876
1.53296
1.52674
1.51973
1.51218
1.5042
1.49551
1.50398
1.50264
2.30438
2.14563
1.88277
1.84999
1.8056
1.77741
1.7441
1.73078
1.70481
1.70004
1.70711
1.71958
1.76024
1.86169
2.0715
2.1439
2.07894
1.9932
1.95935
1.9541
1.94363
1.92995
1.91448
1.90048
1.88778
1.87519
1.86274
1.85021
1.83775
1.82545
1.81326
1.8018
1.79065
1.7805
1.7705
1.76033
1.74971
1.7387
1.72734
1.71552
1.7033
1.69051
1.67704
1.66273
1.64762
1.63172
1.61529
1.59834
1.58136
1.56606
1.55124
1.53621
1.52251
1.50813
1.49452
1.4806
1.46646
1.45186
1.43674
1.42425
1.4103
1.40257
1.39464
1.3867
1.37772
1.36743
1.35683
1.34841
1.33808
1.33696
1.33401
1.33774
1.34709
1.37838
1.4314
1.50622
1.59044
1.68312
1.65557
1.62762
1.6042
1.5706
1.572
1.57708
1.57591
1.57361
1.56957
1.56198
1.55059
1.54168
1.53667
1.53168
1.52624
1.52014
1.51312
1.50489
1.49552
1.48561
1.49427
1.1298
1.72044
2.4137
2.07676
1.8783
1.8315
1.7817
1.75029
1.71708
1.71072
1.71647
1.73446
1.7826
1.88836
2.09031
2.17779
2.1097
2.02482
1.98243
1.97981
1.96968
1.95552
1.93914
1.92201
1.9078
1.89464
1.88158
1.86864
1.85555
1.8422
1.8285
1.81497
1.80159
1.78904
1.77703
1.76578
1.75478
1.74369
1.73249
1.72119
1.70972
1.69805
1.68612
1.67365
1.66058
1.64669
1.63206
1.61668
1.60059
1.58488
1.56946
1.55543
1.54132
1.52715
1.51362
1.49968
1.48568
1.47167
1.45838
1.44474
1.42964
1.42029
1.41233
1.40434
1.39543
1.38709
1.37794
1.36991
1.36152
1.35282
1.34305
1.33116
1.33286
1.33343
1.34201
1.36681
1.40089
1.45831
1.53749
1.67386
1.66994
1.63144
1.61647
1.58431
1.56638
1.56779
1.56814
1.56447
1.55796
1.54565
1.53945
1.53551
1.53047
1.52429
1.51677
1.50892
1.50054
1.49039
1.4782
1.48655
1.04775
1.2977
2.30149
2.28998
1.99012
1.88427
1.79303
1.74824
1.70219
1.71443
1.73683
1.789
1.90744
2.12229
2.20482
2.13827
2.05955
2.00648
2.00249
1.99346
1.98031
1.96413
1.94604
1.92911
1.91407
1.89962
1.88533
1.87113
1.85681
1.84227
1.82754
1.81288
1.7986
1.78453
1.77088
1.75794
1.74539
1.73332
1.72119
1.7102
1.69936
1.68828
1.67689
1.6652
1.65305
1.64036
1.62693
1.61299
1.59847
1.58375
1.56947
1.5555
1.54225
1.52886
1.51544
1.50189
1.48887
1.47598
1.46296
1.45105
1.43971
1.42825
1.41861
1.41041
1.40303
1.39566
1.38765
1.37997
1.37206
1.36535
1.35834
1.35217
1.34485
1.33724
1.33853
1.34564
1.35562
1.38411
1.42975
1.50513
1.59786
1.69655
1.66936
1.63109
1.60559
1.57271
1.56854
1.56717
1.56277
1.5566
1.55122
1.54568
1.53835
1.52696
1.51504
1.50839
1.50066
1.49121
1.47673
1.48436
1.00951
1.07678
1.41856
2.17028
2.07726
1.8507
1.8017
1.7474
1.72126
1.73499
1.79025
1.92339
2.17337
2.22235
2.15497
2.06861
2.02133
2.01698
2.0091
1.99688
1.98088
1.96237
1.94398
1.92732
1.91097
1.89485
1.8788
1.86304
1.84768
1.83274
1.81799
1.80336
1.78888
1.77454
1.76019
1.74668
1.73361
1.72128
1.709
1.69869
1.68956
1.68001
1.66993
1.65958
1.64896
1.63777
1.62594
1.61353
1.60079
1.58852
1.57653
1.56456
1.55238
1.54004
1.52752
1.5149
1.50215
1.48987
1.47776
1.4658
1.45564
1.44511
1.43666
1.4291
1.4228
1.41624
1.40928
1.40307
1.39594
1.39112
1.38566
1.37992
1.37382
1.36982
1.36295
1.36366
1.36637
1.37457
1.38967
1.43128
1.49855
1.58067
1.73417
1.71428
1.66587
1.64605
1.61855
1.58554
1.58187
1.58023
1.57434
1.56542