/*--------------------------------*- C++ -*----------------------------------*\
| =========                 |                                                 |
| \\      /  F ield         | OpenFOAM: The Open Source CFD Toolbox           |
|  \\    /   O peration     | Version:  v2106                                 |
|   \\  /    A nd           | Website:  www.openfoam.com                      |
|    \\/     M anipulation  |                                                 |
\*---------------------------------------------------------------------------*/
FoamFile
{
    version     2.0;
    format      ascii;
    arch        "LSB;label=32;scalar=64";
    class       volVectorField;
    location    "11";
    object      U;
}
// * * * * * * * * * * * * * * * * * * * * * * * * * * * * * * * * * * * * * //

dimensions      [0 1 -1 0 0 0 0];

internalField   nonuniform List<vector> 
5250
(
(3 -7.49988e-15 0)
(3 1.00272e-14 0)
(3 1.01067e-13 0)
(3 6.67599e-13 0)
(3 8.09681e-12 0)
(3 5.72654e-11 0)
(3 6.45723e-10 0)
(3 5.00987e-09 0)
(3 5.05372e-08 0)
(3.00001 4.43283e-07 0)
(3.00009 3.87359e-06 0)
(3.00067 3.95889e-05 0)
(3.00803 0.000304453 0)
(3.06003 0.0034904 0)
(2.62952 0.00870155 0)
(1.01514 0.05434 0)
(0.314533 0.0169327 0)
(0.51597 0.0193743 0)
(0.42314 0.0214391 0)
(0.358406 0.0201486 0)
(0.309336 0.0230837 0)
(0.245124 0.0251038 0)
(0.186025 0.027154 0)
(0.116379 0.0286396 0)
(0.0438919 0.0354316 0)
(3 -1.65606e-14 0)
(3 2.20666e-14 0)
(3 2.80242e-13 0)
(3 1.39995e-12 0)
(3 2.26244e-11 0)
(3 1.18242e-10 0)
(3 1.80408e-09 0)
(3 1.0349e-08 0)
(3 1.41337e-07 0)
(3.00001 9.34684e-07 0)
(3.00008 1.08345e-05 0)
(3.00069 8.71164e-05 0)
(3.00713 0.000821226 0)
(3.06314 0.00851023 0)
(2.64812 0.0178299 0)
(1.06154 0.140395 0)
(0.317234 0.0474913 0)
(0.524364 0.0568328 0)
(0.430996 0.0625355 0)
(0.363026 0.0669408 0)
(0.314989 0.069718 0)
(0.25052 0.0729434 0)
(0.18921 0.0785032 0)
(0.114005 0.0889102 0)
(0.0400089 0.0982963 0)
(3 -1.75083e-14 0)
(3 2.47307e-14 0)
(3 4.35385e-13 0)
(3 1.14784e-12 0)
(3 3.55415e-11 0)
(3 9.01736e-11 0)
(3 2.86042e-09 0)
(3 7.78561e-09 0)
(3 2.23168e-07 0)
(3.00001 7.97937e-07 0)
(3.00007 1.6659e-05 0)
(3.0007 9.44752e-05 0)
(3.00596 0.00121122 0)
(3.06539 0.0117063 0)
(2.67993 0.0172915 0)
(1.15246 0.229823 0)
(0.30622 0.0829468 0)
(0.531356 0.0988806 0)
(0.437515 0.107012 0)
(0.371724 0.107201 0)
(0.322466 0.114273 0)
(0.254254 0.123967 0)
(0.187262 0.138208 0)
(0.113153 0.151036 0)
(0.0388543 0.162727 0)
(3 -1.32493e-14 0)
(3 2.24258e-14 0)
(3 6.15592e-13 0)
(3 -3.33137e-13 0)
(3 5.31386e-11 0)
(3 -5.57091e-11 0)
(3 4.24231e-09 0)
(3 -7.16988e-09 0)
(3 3.25394e-07 0)
(3.00001 -2.15245e-07 0)
(3.00005 2.40562e-05 0)
(3.00073 4.62393e-05 0)
(3.00447 0.00160418 0)
(3.06739 0.014435 0)
(2.72002 0.0210271 0)
(1.29505 0.312958 0)
(0.294469 0.123965 0)
(0.540097 0.137726 0)
(0.44562 0.146464 0)
(0.37439 0.154401 0)
(0.323508 0.167432 0)
(0.25455 0.181889 0)
(0.192266 0.195064 0)
(0.11732 0.212584 0)
(0.0412411 0.226224 0)
(3 -2.19692e-14 0)
(3 3.37747e-14 0)
(3 6.69879e-13 0)
(3 -1.62473e-12 0)
(3 6.16503e-11 0)
(3 -9.52053e-11 0)
(3 5.67742e-09 0)
(3 -2.7998e-08 0)
(3 4.63512e-07 0)
(3.00001 -4.75421e-06 0)
(3.00003 3.04885e-05 0)
(3.00079 -0.000133076 0)
(3.00291 0.00198196 0)
(3.06811 0.0163068 0)
(2.768 0.0268496 0)
(1.48338 0.378595 0)
(0.292647 0.176951 0)
(0.553034 0.180927 0)
(0.456748 0.191428 0)
(0.379621 0.200161 0)
(0.333099 0.212345 0)
(0.269147 0.228268 0)
(0.202021 0.250868 0)
(0.127408 0.27703 0)
(0.0419833 0.295933 0)
(3 -2.46822e-14 0)
(3 2.31443e-14 0)
(3 -5.54823e-13 0)
(3 -1.46078e-11 0)
(3 1.28617e-10 0)
(3 -1.55742e-10 0)
(3 7.6754e-09 0)
(3 1.01425e-08 0)
(3 5.92497e-07 0)
(3.00001 -1.25748e-06 0)
(3.00003 4.98152e-05 0)
(3.00058 -0.000651018 0)
(3.00141 0.00219709 0)
(3.06712 0.0173802 0)
(2.82091 0.0349658 0)
(1.72071 0.42604 0)
(0.31974 0.241994 0)
(0.57276 0.227555 0)
(0.481736 0.238985 0)
(0.392919 0.248312 0)
(0.347149 0.261327 0)
(0.277454 0.289874 0)
(0.212828 0.31455 0)
(0.132012 0.347663 0)
(0.0483357 0.370175 0)
(3 -4.24617e-14 0)
(3 1.14916e-13 0)
(3 -1.57346e-12 0)
(3 2.43485e-12 0)
(3 -1.03089e-10 0)
(3 -4.34943e-10 0)
(3 8.2482e-09 0)
(3 1.32431e-08 0)
(3 4.74528e-07 0)
(3.00001 1.98984e-06 0)
(2.99999 2.90111e-05 0)
(3.0007 0.000190707 0)
(3.00004 0.00181108 0)
(3.06353 0.0152972 0)
(2.87391 0.0275143 0)
(2.03905 0.426763 0)
(0.397783 0.322395 0)
(0.612568 0.28467 0)
(0.533061 0.289457 0)
(0.423588 0.304355 0)
(0.378218 0.308419 0)
(0.306269 0.338596 0)
(0.245802 0.372915 0)
(0.141816 0.420347 0)
(0.0707677 0.452645 0)
(3 -2.99841e-15 0)
(3 1.28756e-13 0)
(3 1.62024e-12 0)
(3 1.49336e-11 0)
(3 -1.06616e-10 0)
(3 -6.56546e-11 0)
(3 4.97167e-09 0)
(3 7.63279e-09 0)
(3 2.71865e-07 0)
(3.00002 1.28272e-06 0)
(2.99993 1.86903e-05 0)
(3.00091 0.00013453 0)
(2.99908 0.00142642 0)
(3.05675 0.0134039 0)
(2.9174 0.0399463 0)
(2.18812 0.355523 0)
(0.498172 0.398248 0)
(0.652394 0.355338 0)
(0.58714 0.357689 0)
(0.476502 0.366182 0)
(0.418458 0.364682 0)
(0.33593 0.404415 0)
(0.254823 0.45945 0)
(0.173683 0.502318 0)
(0.0725176 0.557761 0)
(3 4.52946e-14 0)
(3 -4.5078e-13 0)
(3 -3.22018e-13 0)
(3 1.01296e-11 0)
(3 5.8639e-11 0)
(3 8.09415e-10 0)
(3 -1.06562e-08 0)
(3 -8.78794e-09 0)
(3 1.93093e-07 0)
(3.00002 1.44136e-06 0)
(2.99993 1.61396e-05 0)
(3.00083 0.000129596 0)
(2.99858 0.00130595 0)
(3.04765 0.0112207 0)
(2.96343 0.0552669 0)
(2.31555 0.295418 0)
(0.593137 0.449024 0)
(0.679228 0.417648 0)
(0.640693 0.411505 0)
(0.536739 0.440621 0)
(0.480066 0.427674 0)
(0.37645 0.476067 0)
(0.333205 0.518892 0)
(0.223563 0.583236 0)
(0.146295 0.681424 0)
(3 1.59594e-14 0)
(3 3.63956e-14 0)
(3 6.44102e-13 0)
(3 4.02448e-12 0)
(3 4.62116e-11 0)
(3 3.52407e-10 0)
(3 -7.74783e-10 0)
(3 2.76271e-08 0)
(3 8.13013e-08 0)
(3.00002 1.88249e-06 0)
(2.99989 1.05651e-05 0)
(3.00094 0.000138902 0)
(2.99705 0.00103059 0)
(3.04914 0.011043 0)
(3.00257 0.0597722 0)
(2.44545 0.252338 0)
(0.678843 0.500863 0)
(0.700083 0.454297 0)
(0.673687 0.47453 0)
(0.614056 0.494707 0)
(0.545185 0.507031 0)
(0.442171 0.549792 0)
(0.380047 0.611182 0)
(0.29471 0.698748 0)
(0.0978866 0.914668 0)
(3 1.15003e-14 0)
(3 3.97933e-13 0)
(3 3.02294e-12 0)
(3 -3.7544e-12 0)
(3 1.18466e-10 0)
(3 6.93e-10 0)
(3 9.51798e-09 0)
(3 7.55592e-08 0)
(3 -5.19508e-08 0)
(3.00001 2.79188e-06 0)
(2.99997 4.99955e-06 0)
(3.00042 0.0001764 0)
(2.99956 0.000852175 0)
(3.02409 -0.0426167 0)
(3.02792 0.0691458 0)
(2.56849 0.234758 0)
(0.83692 0.555601 0)
(0.660589 0.460335 0)
(0.701079 0.490219 0)
(0.662244 0.5693 0)
(0.624271 0.576633 0)
(0.528111 0.628221 0)
(0.468021 0.696437 0)
(0.474906 0.799959 0)
(0.415429 1.08684 0)
(3 2.50161e-14 0)
(3 2.05474e-15 0)
(3 1.24596e-12 0)
(3 3.94873e-12 0)
(3 8.2285e-11 0)
(3 5.40658e-10 0)
(3 -8.03368e-10 0)
(3 2.29938e-08 0)
(3 2.76779e-08 0)
(3 1.39836e-06 0)
(3.00005 6.55726e-06 0)
(2.99987 0.000104075 0)
(3.00228 0.000735321 0)
(3.00011 0.00871083 0)
(3.06383 0.0603733 0)
(2.69951 0.225568 0)
(1.08677 0.64778 0)
(0.588254 0.469125 0)
(0.681422 0.506838 0)
(0.690125 0.588711 0)
(0.681209 0.654741 0)
(0.631319 0.702964 0)
(0.593542 0.759426 0)
(0.678586 0.853215 0)
(0.671439 1.0075 0)
(3 -6.58143e-14 0)
(3 7.71461e-14 0)
(3 2.1305e-13 0)
(3 2.96261e-12 0)
(3 5.07767e-11 0)
(3 -1.04362e-10 0)
(3 1.76722e-09 0)
(3 3.948e-09 0)
(3 4.98077e-08 0)
(3 5.86175e-07 0)
(3.00001 -5.84837e-07 0)
(3.00004 6.24046e-05 0)
(3.00072 -0.000353349 0)
(3.00237 0.00432477 0)
(3.07425 0.0447461 0)
(2.84669 0.179033 0)
(1.52817 0.751515 0)
(0.566132 0.497668 0)
(0.67982 0.515028 0)
(0.697038 0.589447 0)
(0.699469 0.6722 0)
(0.728505 0.74526 0)
(0.722299 0.8003 0)
(0.799117 0.886452 0)
(0.873738 0.902896 0)
(3 -3.43135e-15 0)
(3 9.15333e-17 0)
(3 -3.03997e-13 0)
(3 -1.67748e-12 0)
(3 1.58314e-11 0)
(3 -2.42632e-11 0)
(3 5.32327e-10 0)
(3 -1.86853e-09 0)
(3 1.36223e-08 0)
(3 8.46596e-07 0)
(3.00001 3.79145e-06 0)
(2.99997 5.32196e-05 0)
(3.00074 0.000345823 0)
(2.99956 0.00351216 0)
(3.06155 0.0281405 0)
(2.94276 0.100634 0)
(2.12043 0.794221 0)
(0.654274 0.581619 0)
(0.712675 0.547541 0)
(0.720173 0.591659 0)
(0.729589 0.663778 0)
(0.767699 0.739345 0)
(0.811852 0.801823 0)
(0.890353 0.878519 0)
(0.972355 0.873932 0)
(3 -3.77741e-15 0)
(3 3.58006e-14 0)
(3 1.10871e-13 0)
(3 2.56299e-12 0)
(3 1.58456e-11 0)
(3 -2.13402e-11 0)
(3 6.45799e-10 0)
(3 1.15602e-09 0)
(3 3.81537e-08 0)
(3 1.8724e-07 0)
(3.00003 2.83531e-06 0)
(2.99984 2.044e-05 0)
(3.00138 0.000239104 0)
(2.99605 0.00200052 0)
(3.06267 0.0211506 0)
(2.99546 0.0798474 0)
(2.49432 0.663032 0)
(0.88594 0.693694 0)
(0.787705 0.587545 0)
(0.765758 0.612206 0)
(0.771464 0.663302 0)
(0.807166 0.732556 0)
(0.86374 0.795632 0)
(0.952468 0.867837 0)
(1.04192 0.870501 0)
(3 2.87147e-15 0)
(3 3.56978e-15 0)
(3 5.99903e-13 0)
(3 2.43122e-12 0)
(3 -1.27145e-12 0)
(3 6.84809e-11 0)
(3 4.68647e-11 0)
(3 1.35582e-08 0)
(3 1.71529e-07 0)
(3 -5.61503e-08 0)
(3 5.54508e-07 0)
(3.00001 9.50691e-06 0)
(3.00019 -0.00032214 0)
(3.00052 0.00206017 0)
(3.01824 -0.0671324 0)
(3.03178 0.109499 0)
(2.71808 0.528017 0)
(1.22377 0.812737 0)
(0.819331 0.639323 0)
(0.822674 0.640533 0)
(0.826416 0.674752 0)
(0.852689 0.727796 0)
(0.906409 0.776901 0)
(0.985169 0.836264 0)
(1.08371 0.848773 0)
(3 1.10043e-15 0)
(3 5.59533e-15 0)
(3 3.27992e-14 0)
(3 3.07089e-13 0)
(3 1.90794e-12 0)
(3 1.65484e-11 0)
(3 1.00772e-10 0)
(3 1.09454e-09 0)
(3 3.03396e-08 0)
(3 1.28295e-07 0)
(3.00001 1.95586e-06 0)
(2.99999 9.70887e-06 0)
(2.99937 0.000138247 0)
(3.00422 0.000986278 0)
(2.98446 0.0101753 0)
(3.08334 0.0708901 0)
(2.91197 0.366037 0)
(1.73882 0.912936 0)
(0.829098 0.693396 0)
(0.856954 0.683903 0)
(0.871446 0.702326 0)
(0.891425 0.737849 0)
(0.937861 0.770581 0)
(1.01256 0.810101 0)
(1.10045 0.83327 0)
(3 3.39798e-15 0)
(3 2.74332e-14 0)
(3 1.75839e-14 0)
(3 1.71029e-12 0)
(3 6.26214e-12 0)
(3 1.17537e-10 0)
(3 7.85589e-10 0)
(3 1.39773e-10 0)
(3 3.76907e-08 0)
(3 1.25454e-07 0)
(3 2.37307e-06 0)
(3.00004 1.48871e-05 0)
(2.99986 2.78915e-06 0)
(3.00149 0.000540349 0)
(2.99766 0.00234564 0)
(3.07466 0.0388903 0)
(3.0119 0.206907 0)
(2.33913 0.931216 0)
(0.978708 0.770229 0)
(0.920908 0.716105 0)
(0.925318 0.710397 0)
(0.943323 0.730397 0)
(0.980406 0.756011 0)
(1.04016 0.789808 0)
(1.12248 0.808218 0)
(3 3.23193e-16 0)
(3 -1.45634e-15 0)
(3 5.9735e-14 0)
(3 -6.57047e-13 0)
(3 3.52058e-12 0)
(3 1.90664e-11 0)
(3 -1.27136e-10 0)
(3 1.94701e-09 0)
(3 -1.80017e-09 0)
(3 2.49061e-09 0)
(3 2.20996e-07 0)
(3.00001 -7.04266e-06 0)
(3.00001 2.22657e-05 0)
(3.00026 -0.000104326 0)
(3.00097 0.0028423 0)
(3.02204 -0.0311077 0)
(3.05098 0.152985 0)
(2.70959 0.744997 0)
(1.31128 0.863857 0)
(0.987078 0.75996 0)
(0.979355 0.735294 0)
(0.993221 0.744278 0)
(1.022 0.760283 0)
(1.07034 0.782134 0)
(1.14013 0.795434 0)
(3 2.71981e-16 0)
(3 5.49362e-15 0)
(3 5.89515e-15 0)
(3 1.68684e-13 0)
(3 -5.04105e-13 0)
(3 1.06823e-11 0)
(3 8.23208e-11 0)
(3 1.10783e-10 0)
(3 3.15054e-09 0)
(3 3.14805e-08 0)
(3 2.80443e-07 0)
(2.99999 2.66712e-06 0)
(3.00013 1.93853e-05 0)
(2.99941 0.000185022 0)
(3.0046 0.00152041 0)
(2.98726 0.0140492 0)
(3.14188 0.104788 0)
(2.9788 0.516292 0)
(1.87567 0.927258 0)
(1.02606 0.799279 0)
(1.02561 0.766987 0)
(1.04064 0.770563 0)
(1.06651 0.775114 0)
(1.1052 0.782765 0)
(1.16222 0.786414 0)
(3 1.80511e-17 0)
(3 4.37094e-16 0)
(3 3.97947e-15 0)
(3 -2.8884e-14 0)
(3 3.55808e-13 0)
(3 1.94213e-12 0)
(3 -7.69657e-12 0)
(3 1.79148e-10 0)
(3 -2.01248e-09 0)
(3 1.54305e-08 0)
(3 4.41902e-07 0)
(3 -9.26408e-07 0)
(3.00001 9.28436e-06 0)
(3.00004 8.86329e-06 0)
(3.00044 0.000234668 0)
(3.00347 0.011679 0)
(3.03682 -0.160852 0)
(3.06913 0.318309 0)
(2.47462 1.01026 0)
(1.20379 0.88183 0)
(1.07664 0.830584 0)
(1.08026 0.790079 0)
(1.1028 0.785497 0)
(1.13921 0.785492 0)
(1.18768 0.783636 0)
(3 4.91274e-17 0)
(3 2.51498e-16 0)
(3 -2.12004e-16 0)
(3 2.02923e-14 0)
(3 1.78438e-13 0)
(3 1.68888e-12 0)
(3 1.39126e-11 0)
(3 -3.85828e-10 0)
(3 1.16132e-09 0)
(3 7.9259e-09 0)
(3 6.96669e-08 0)
(3 5.50519e-07 0)
(3.00003 5.10337e-06 0)
(2.99999 3.78315e-05 0)
(2.99832 0.000367095 0)
(3.01426 0.00304776 0)
(2.94732 0.0250581 0)
(3.22462 0.195514 0)
(2.92854 0.765794 0)
(1.66707 0.949871 0)
(1.15011 0.855802 0)
(1.13274 0.805625 0)
(1.14759 0.797955 0)
(1.17646 0.791165 0)
(1.21633 0.786695 0)
(3 1.35684e-16 0)
(3 1.51389e-15 0)
(3 -8.41113e-15 0)
(3 7.49535e-14 0)
(3 -2.07352e-13 0)
(3 2.70438e-12 0)
(3 5.38542e-12 0)
(3 1.7634e-10 0)
(3 1.25307e-09 0)
(3 -1.55951e-09 0)
(3 8.48238e-08 0)
(3 9.00521e-08 0)
(3 3.78442e-06 0)
(3.00002 4.40193e-05 0)
(3.00005 -2.44471e-05 0)
(3.00091 0.000539251 0)
(3.00451 0.0137085 0)
(3.0637 -0.318225 0)
(3.08053 0.559285 0)
(2.28879 1.06662 0)
(1.22531 0.899775 0)
(1.17781 0.857182 0)
(1.18959 0.813987 0)
(1.21165 0.802101 0)
(1.24562 0.793578 0)
(3 1.1944e-17 0)
(3 -1.35574e-16 0)
(3 3.8832e-16 0)
(3 6.58122e-15 0)
(3 4.81124e-14 0)
(3 8.76838e-14 0)
(3 3.22968e-12 0)
(3 1.95354e-11 0)
(3 2.55348e-10 0)
(3 1.83963e-09 0)
(3 1.0593e-08 0)
(3 1.2199e-07 0)
(3 1.07554e-06 0)
(3.00004 9.07808e-06 0)
(2.99998 5.89186e-05 0)
(2.99808 0.00060744 0)
(3.01598 0.00471589 0)
(2.92137 0.0380729 0)
(3.30345 0.328336 0)
(2.91033 0.978209 0)
(1.6244 0.98066 0)
(1.25353 0.896556 0)
(1.23707 0.832851 0)
(1.25199 0.821372 0)
(1.27835 0.809756 0)
(3 -9.24424e-17 0)
(3 7.92363e-16 0)
(3 -1.23124e-15 0)
(3 9.19713e-15 0)
(3 -2.94901e-15 0)
(3 7.99819e-14 0)
(3 2.73132e-12 0)
(3 1.07473e-11 0)
(3 2.60526e-10 0)
(3 3.58206e-10 0)
(3 -1.48263e-09 0)
(3 1.08795e-07 0)
(3 8.55241e-08 0)
(3 6.15769e-06 0)
(3.00002 5.24595e-05 0)
(3.00008 -1.85138e-05 0)
(3.00128 0.000789834 0)
(3.00567 0.0111677 0)
(3.08446 -0.231338 0)
(3.12169 0.693628 0)
(2.2805 1.06514 0)
(1.33332 0.91538 0)
(1.28007 0.875751 0)
(1.29513 0.837513 0)
(1.31424 0.823652 0)
(3 -3.5968e-17 0)
(3 1.77295e-16 0)
(3 3.51322e-16 0)
(3 1.33459e-15 0)
(3 9.59252e-15 0)
(3 7.52747e-14 0)
(3 7.07931e-13 0)
(3 5.41421e-12 0)
(3 4.98723e-11 0)
(3 3.51088e-10 0)
(3 2.66754e-09 0)
(3 2.45079e-08 0)
(3 1.96057e-07 0)
(2.99999 1.62909e-06 0)
(3.00005 1.29811e-05 0)
(2.99997 8.25988e-05 0)
(2.99777 0.000846615 0)
(3.01782 0.00647815 0)
(2.9359 0.0517963 0)
(3.33642 0.405324 0)
(2.91738 1.04759 0)
(1.68761 0.993725 0)
(1.35979 0.938471 0)
(1.33466 0.867586 0)
(1.34816 0.853116 0)
(3 1.64552e-17 0)
(3 1.74135e-17 0)
(3 1.63496e-16 0)
(3 1.55653e-15 0)
(3 1.93518e-14 0)
(3 1.43773e-13 0)
(3 -4.30955e-14 0)
(3 4.8754e-12 0)
(3 2.20814e-11 0)
(3 3.39362e-10 0)
(3 4.7368e-09 0)
(3 9.31091e-10 0)
(3 1.52638e-07 0)
(3 2.43186e-07 0)
(3 7.59884e-06 0)
(3.00002 6.39427e-05 0)
(3.0001 2.82737e-05 0)
(3.0016 0.000624465 0)
(3.00668 0.0150813 0)
(3.10624 -0.233068 0)
(3.1527 0.7614 0)
(2.31627 1.06682 0)
(1.43835 0.94461 0)
(1.37802 0.912368 0)
(1.38932 0.866985 0)
(3 5.34978e-17 0)
(3 2.13078e-16 0)
(3 1.33736e-16 0)
(3 9.17059e-16 0)
(3 2.78876e-15 0)
(3 2.02225e-14 0)
(3 1.3124e-13 0)
(3 1.04711e-12 0)
(3 9.1326e-12 0)
(3 7.25937e-11 0)
(3 5.78602e-10 0)
(3 4.04231e-09 0)
(3 3.41295e-08 0)
(3 2.62526e-07 0)
(3 2.05853e-06 0)
(3.00004 1.60187e-05 0)
(3 0.00010653 0)
(2.99769 0.000998227 0)
(3.02101 0.00739606 0)
(2.92797 0.0577582 0)
(3.36655 0.434853 0)
(2.95821 1.07444 0)
(1.78687 1.01802 0)
(1.44447 0.976751 0)
(1.41996 0.898921 0)
(3 4.38114e-17 0)
(3 7.76309e-17 0)
(3 1.16659e-16 0)
(3 1.53571e-16 0)
(3 1.96553e-15 0)
(3 1.0428e-15 0)
(3 1.28586e-13 0)
(3 1.38031e-12 0)
(3 -1.53528e-13 0)
(3 5.80789e-11 0)
(3 -4.27427e-10 0)
(3 2.67232e-09 0)
(3 4.66875e-09 0)
(3 1.37641e-07 0)
(3 -1.82039e-06 0)
(3 9.56634e-06 0)
(3.00003 7.14634e-05 0)
(3.00007 3.95043e-05 0)
(3.00192 -0.00236554 0)
(3.004 0.00960969 0)
(3.13001 -0.137335 0)
(3.22832 0.755614 0)
(2.45118 1.07908 0)
(1.5415 0.963768 0)
(1.47338 0.942269 0)
(3 -1.50946e-16 0)
(3 -1.63993e-16 0)
(3 -6.46114e-16 0)
(3 -9.5389e-16 0)
(3 -4.56876e-16 0)
(3 -1.90884e-15 0)
(3 2.05546e-14 0)
(3 1.4402e-13 0)
(3 1.08503e-12 0)
(3 9.94481e-12 0)
(3 6.64957e-11 0)
(3 4.41867e-10 0)
(3 4.30647e-09 0)
(3 1.60185e-08 0)
(3 2.94149e-07 0)
(3 2.13351e-06 0)
(3.00002 -9.83954e-06 0)
(3.00005 0.000119828 0)
(2.99825 0.00103416 0)
(3.01574 0.00698279 0)
(2.94554 0.0575662 0)
(3.35239 0.404371 0)
(3.03746 1.05894 0)
(1.93372 1.04238 0)
(1.54711 0.992257 0)
(3 5.13189e-17 0)
(3 5.09481e-17 0)
(3 5.13994e-17 0)
(3 4.99468e-17 0)
(3 3.77343e-17 0)
(3 -1.33779e-15 0)
(3 1.31521e-14 0)
(3 7.02487e-14 0)
(3 6.82436e-13 0)
(3 3.93624e-12 0)
(3 4.85095e-11 0)
(3 3.31984e-10 0)
(3 -8.35766e-10 0)
(3 1.05724e-08 0)
(3 5.86941e-08 0)
(3 6.21649e-07 0)
(2.99999 5.28866e-06 0)
(3.00006 2.6886e-05 0)
(2.99991 -8.45694e-05 0)
(3.00257 -0.00339081 0)
(3.00265 0.00931315 0)
(3.13396 -0.0096307 0)
(3.31906 0.666774 0)
(2.62034 1.06461 0)
(1.69529 0.967225 0)
(3 -1.97522e-33 0)
(3 -1.02638e-16 0)
(3 1.02638e-16 0)
(3 3.59232e-16 0)
(3 1.79247e-16 0)
(3 5.76203e-16 0)
(3 2.43009e-15 0)
(3 -3.77283e-14 0)
(3 2.95006e-13 0)
(3 -1.98238e-12 0)
(3 1.28365e-11 0)
(3 3.66067e-11 0)
(3 4.88331e-10 0)
(3 6.88457e-09 0)
(3 -3.13771e-08 0)
(3 3.06014e-07 0)
(3 5.20712e-07 0)
(3 1.20883e-05 0)
(3.00003 7.6068e-05 0)
(2.99863 0.000815628 0)
(3.00949 0.00567373 0)
(2.98002 0.0494121 0)
(3.31784 0.371183 0)
(3.11796 0.98215 0)
(2.15842 1.04135 0)
(3 -1.02638e-16 0)
(3 -2.65725e-16 0)
(3 -2.05276e-16 0)
(3 -3.07913e-16 0)
(3 -3.0774e-16 0)
(3 -1.68381e-16 0)
(3 -5.72706e-16 0)
(3 5.14018e-15 0)
(3 4.69608e-14 0)
(3 3.61149e-13 0)
(3 2.45904e-12 0)
(3 2.5131e-11 0)
(3 4.67424e-11 0)
(3 1.40523e-10 0)
(3 7.5972e-09 0)
(3 1.57544e-08 0)
(3 3.85187e-07 0)
(3 2.83209e-06 0)
(3.00002 2.75273e-05 0)
(3.00009 2.96218e-05 0)
(3.00124 0.000413904 0)
(3.00511 0.00872917 0)
(3.11257 0.0702141 0)
(3.39875 0.601024 0)
(2.88099 1.03743 0)
(3 -2.56595e-16 0)
(3 5.13189e-17 0)
(3 -3.59232e-16 0)
(3 -5.93382e-16 0)
(3 -5.25947e-16 0)
(3 -7.66089e-16 0)
(3 -4.02464e-16 0)
(3 -5.50555e-15 0)
(3 1.63336e-14 0)
(3 -2.50455e-14 0)
(3 9.10882e-13 0)
(3 2.44614e-12 0)
(3 -3.57788e-11 0)
(3 3.89599e-10 0)
(3 1.96357e-09 0)
(3 2.60221e-08 0)
(3 1.74144e-07 0)
(3 1.3269e-06 0)
(3 1.1945e-05 0)
(3.0001 9.22509e-05 0)
(2.99978 0.000766703 0)
(3.00151 -0.00733772 0)
(3.0034 0.0484607 0)
(3.30924 0.112206 0)
(3.20818 0.728761 0)
(3 -6.04381e-17 0)
(3 1.53957e-16 0)
(3 2.56595e-16 0)
(3 2.56595e-16 0)
(3 4.8031e-16 0)
(3 -3.82359e-17 0)
(3 2.54185e-16 0)
(3 9.03061e-16 0)
(3 5.13237e-15 0)
(3 3.51883e-14 0)
(3 2.49604e-13 0)
(3 1.58747e-12 0)
(3 1.24384e-11 0)
(3 1.22758e-11 0)
(3 5.00015e-10 0)
(3 5.68852e-09 0)
(3 2.86512e-09 0)
(3 2.48727e-07 0)
(3 1.64952e-06 0)
(3.00001 1.95324e-05 0)
(3.00018 7.77044e-05 0)
(2.99994 0.00089663 0)
(3.008 0.00752446 0)
(2.93409 0.0768982 0)
(3.41611 0.464669 0)
(3 5.13189e-17 0)
(3 3.84822e-17 0)
(3 2.05276e-16 0)
(3 1.63471e-16 0)
(3 3.5888e-16 0)
(3 6.15484e-16 0)
(3 8.72478e-16 0)
(3 1.21259e-15 0)
(3 4.42193e-16 0)
(3 9.55919e-15 0)
(3 -1.31956e-14 0)
(3 1.13764e-13 0)
(3 1.96838e-12 0)
(3 2.6525e-11 0)
(3 2.53558e-10 0)
(3 1.39437e-09 0)
(3 2.00888e-08 0)
(3 1.28847e-07 0)
(3 8.60495e-07 0)
(3 4.84483e-06 0)
(3.00003 5.22787e-05 0)
(2.9999 0.000353876 0)
(3.00343 0.00349057 0)
(2.99983 0.00670296 0)
(3.14392 0.0535981 0)
(3 1.53957e-16 0)
(3 1.53957e-16 0)
(3 2.28315e-17 0)
(3 1.90699e-16 0)
(3 2.87543e-16 0)
(3 3.04492e-16 0)
(3 6.4286e-16 0)
(3 8.48567e-16 0)
(3 1.46377e-15 0)
(3 3.50756e-15 0)
(3 1.67124e-14 0)
(3 1.72028e-13 0)
(3 1.0475e-12 0)
(3 -7.71336e-12 0)
(3 5.19541e-11 0)
(3 2.64409e-10 0)
(3 2.55245e-09 0)
(3 2.91171e-08 0)
(3 1.22802e-07 0)
(3 1.57879e-06 0)
(3 1.35752e-05 0)
(3.00007 -0.000709748 0)
(3.0001 0.000981666 0)
(3.00647 0.00566528 0)
(2.97992 0.0481912 0)
(3 -1.02638e-16 0)
(3 -2.12218e-18 0)
(3 1.6542e-17 0)
(3 7.48115e-17 0)
(3 2.52089e-16 0)
(3 2.7519e-16 0)
(3 1.24953e-16 0)
(3 5.16078e-16 0)
(3 1.02475e-15 0)
(3 -1.02871e-15 0)
(3 7.56955e-15 0)
(3 8.82386e-14 0)
(3 -1.20093e-13 0)
(3 3.23744e-13 0)
(3 2.131e-11 0)
(3 1.64138e-10 0)
(3 -1.78705e-10 0)
(3 1.1638e-08 0)
(3 -6.79431e-08 0)
(3 5.36141e-07 0)
(3 2.95046e-06 0)
(2.99997 2.64658e-05 0)
(3.00019 -0.000379144 0)
(3.00036 0.00172177 0)
(3.01299 -0.0115275 0)
(3 5.13189e-17 0)
(3 1.45847e-16 0)
(3 -4.42724e-17 0)
(3 1.57046e-16 0)
(3 1.17997e-16 0)
(3 2.53109e-16 0)
(3 2.81411e-16 0)
(3 1.47572e-16 0)
(3 1.45545e-17 0)
(3 5.20751e-16 0)
(3 -2.80865e-15 0)
(3 1.72235e-14 0)
(3 3.99428e-14 0)
(3 8.91984e-13 0)
(3 6.03524e-12 0)
(3 -3.91924e-12 0)
(3 2.65042e-10 0)
(3 4.46153e-10 0)
(3 1.117e-09 0)
(3 -4.06958e-08 0)
(3 -7.29197e-07 0)
(3.00001 -1.29604e-05 0)
(2.99995 3.5938e-05 0)
(3.00048 -5.49634e-06 0)
(3.00085 0.00314583 0)
(3 1.17359e-16 0)
(3 3.01837e-16 0)
(3 5.37033e-16 0)
(3 -5.14645e-17 0)
(3 5.12023e-17 0)
(3 -6.67082e-16 0)
(3 -9.23632e-16 0)
(3 -1.11899e-15 0)
(3 -1.3375e-15 0)
(3 -1.4867e-15 0)
(3 -5.56122e-16 0)
(3 7.59914e-16 0)
(3 2.14279e-14 0)
(3 4.82399e-13 0)
(3 4.46642e-13 0)
(3 1.485e-11 0)
(3 8.68603e-11 0)
(3 8.07006e-10 0)
(3 6.49641e-09 0)
(3 4.81282e-08 0)
(3 7.93406e-08 0)
(3 1.55447e-06 0)
(3.00001 -1.80521e-05 0)
(3.00003 0.000118043 0)
(3.00024 0.00103668 0)
(3 -5.13189e-17 0)
(3 -2.56595e-16 0)
(3 -2.56595e-16 0)
(3 -3.07913e-16 0)
(3 -2.56595e-16 0)
(3 -2.47109e-16 0)
(3 -2.6608e-16 0)
(3 -1.02638e-16 0)
(3 -2.99996e-17 0)
(3 1.83066e-16 0)
(3 1.70067e-16 0)
(3 1.79467e-15 0)
(3 1.06214e-14 0)
(3 6.86538e-14 0)
(3 5.53028e-13 0)
(3 3.85079e-12 0)
(3 3.244e-11 0)
(3 -1.60871e-10 0)
(3 1.25728e-09 0)
(3 4.15641e-09 0)
(3 4.67648e-08 0)
(3 -1.34895e-07 0)
(3.00001 3.35057e-06 0)
(2.99996 2.34324e-05 0)
(3.00046 0.000187489 0)
(3 2.06917e-17 0)
(3 -1.25841e-16 0)
(3 1.02432e-16 0)
(3 3.07767e-16 0)
(3 4.17097e-16 0)
(3 3.726e-16 0)
(3 5.54299e-16 0)
(3 4.06979e-16 0)
(3 2.45852e-16 0)
(3 4.48501e-16 0)
(3 4.65398e-16 0)
(3 6.61006e-16 0)
(3 2.4375e-15 0)
(3 3.02056e-14 0)
(3 1.54096e-13 0)
(3 1.73384e-12 0)
(3 5.86667e-12 0)
(3 7.47313e-11 0)
(3 4.0461e-10 0)
(3 4.45311e-09 0)
(3 8.70678e-09 0)
(3 7.78146e-08 0)
(3 1.15267e-06 0)
(2.99999 3.87812e-06 0)
(3.00004 7.22134e-05 0)
(3 1.53957e-16 0)
(3 2.90643e-16 0)
(3 1.82139e-16 0)
(3 1.02638e-16 0)
(3 1.53957e-16 0)
(3 9.91569e-17 0)
(3 2.11277e-16 0)
(3 3.09191e-16 0)
(3 3.06413e-16 0)
(3 3.20036e-16 0)
(3 2.75288e-16 0)
(3 3.19888e-16 0)
(3 1.03408e-15 0)
(3 -7.33484e-15 0)
(3 6.32949e-14 0)
(3 -3.96111e-13 0)
(3 2.72507e-12 0)
(3 -8.5569e-12 0)
(3 1.42397e-10 0)
(3 1.04232e-09 0)
(3 6.23528e-09 0)
(3 5.87177e-08 0)
(3 4.86236e-07 0)
(3 1.30191e-06 0)
(3.00003 1.20731e-05 0)
(3 -1.02638e-16 0)
(3 -3.59232e-16 0)
(3 -3.77615e-16 0)
(3 -7.69784e-16 0)
(3 -7.69784e-16 0)
(3 -7.21492e-16 0)
(3 -6.12777e-16 0)
(3 -6.21772e-16 0)
(3 -6.09824e-16 0)
(3 -6.87144e-16 0)
(3 -8.44187e-16 0)
(3 -8.30777e-16 0)
(3 -9.0075e-16 0)
(3 4.91596e-16 0)
(3 1.0045e-14 0)
(3 9.40883e-14 0)
(3 4.95333e-13 0)
(3 4.4113e-12 0)
(3 -7.60261e-11 0)
(3 2.29351e-10 0)
(3 2.26822e-09 0)
(3 6.1157e-09 0)
(3 1.04587e-07 0)
(3 3.76866e-07 0)
(3 -2.85674e-06 0)
(3 -1.02638e-16 0)
(3 -1.53957e-16 0)
(3 -1.53957e-16 0)
(3 -5.13189e-17 0)
(3 -5.13189e-17 0)
(3 -1.02638e-16 0)
(3 -5.13189e-17 0)
(3 -5.64508e-16 0)
(3 -7.18465e-16 0)
(3 -8.72421e-16 0)
(3 -9.2374e-16 0)
(3 -9.2374e-16 0)
(3 -8.99515e-16 0)
(3 -9.49185e-16 0)
(3 1.33502e-15 0)
(3 8.08927e-16 0)
(3 1.05693e-14 0)
(3 7.25941e-13 0)
(3 9.5578e-12 0)
(3 6.27261e-11 0)
(3 5.49618e-10 0)
(3 -3.59772e-09 0)
(3 3.6728e-08 0)
(3 -2.44001e-08 0)
(3 7.29518e-07 0)
(3 5.13189e-17 0)
(3 -5.13189e-17 0)
(3 5.13189e-17 0)
(3 9.19145e-18 0)
(3 9.34464e-17 0)
(3 -1.02638e-16 0)
(3 -1.02638e-16 0)
(3 -1.02638e-16 0)
(3 -1.02638e-16 0)
(3 -3.07913e-16 0)
(3 -4.01647e-16 0)
(3 -5.01107e-16 0)
(3 -5.67954e-16 0)
(3 -5.00062e-16 0)
(3 3.8987e-16 0)
(3 3.81108e-15 0)
(3 9.32482e-15 0)
(3 2.64709e-13 0)
(3 -4.13967e-13 0)
(3 3.55887e-12 0)
(3 7.29545e-11 0)
(3 2.91697e-10 0)
(3 1.17979e-09 0)
(3 -1.45788e-10 0)
(3 -3.73942e-07 0)
(3 5.13189e-17 0)
(3 1.55253e-16 0)
(3 5.00227e-17 0)
(3 6.51061e-17 0)
(3 3.75317e-17 0)
(3 -2.56595e-16 0)
(3 -5.13189e-16 0)
(3 -6.67146e-16 0)
(3 -8.72421e-16 0)
(3 -8.72421e-16 0)
(3 -8.72421e-16 0)
(3 -9.70608e-16 0)
(3 -8.72319e-16 0)
(3 -1.02057e-15 0)
(3 -5.94895e-16 0)
(3 -8.81276e-17 0)
(3 1.51573e-14 0)
(3 -1.11813e-13 0)
(3 6.58061e-13 0)
(3 1.56267e-12 0)
(3 1.75668e-11 0)
(3 -5.88496e-11 0)
(3 -1.14341e-09 0)
(3 8.44989e-09 0)
(3 -5.292e-08 0)
(3 5.13189e-17 0)
(3 2.05276e-16 0)
(3 3.07913e-16 0)
(3 3.07913e-16 0)
(3 4.10551e-16 0)
(3 4.6187e-16 0)
(3 4.6187e-16 0)
(3 4.56794e-16 0)
(3 5.7619e-16 0)
(3 2.44685e-16 0)
(3 2.99567e-16 0)
(3 -3.20336e-16 0)
(3 -6.28677e-16 0)
(3 -8.15513e-16 0)
(3 -9.95992e-16 0)
(3 -1.14668e-15 0)
(3 -6.60092e-15 0)
(3 -4.20709e-14 0)
(3 1.64843e-13 0)
(3 -2.61765e-12 0)
(3 -2.472e-13 0)
(3 -1.89313e-10 0)
(3 -9.73039e-10 0)
(3 3.98173e-09 0)
(3 -2.25411e-08 0)
(3 -5.13189e-17 0)
(3 -1.02638e-16 0)
(3 -3.07913e-16 0)
(3 -3.74676e-16 0)
(3 -4.49955e-16 0)
(3 -5.28839e-16 0)
(3 -2.92263e-16 0)
(3 -1.09732e-16 0)
(3 -5.13189e-17 0)
(3 -1.53957e-16 0)
(3 -2.05276e-16 0)
(3 -3.59232e-16 0)
(3 -4.10551e-16 0)
(3 -5.13189e-16 0)
(3 -5.15568e-16 0)
(3 -4.75802e-16 0)
(3 2.89645e-15 0)
(3 1.75506e-14 0)
(3 8.99464e-14 0)
(3 4.459e-13 0)
(3 1.85735e-12 0)
(3 2.92247e-11 0)
(3 1.68005e-10 0)
(3 1.21355e-09 0)
(3 3.8866e-10 0)
(3 -1.02638e-16 0)
(3 -2.56595e-16 0)
(3 -5.64508e-16 0)
(3 -7.18465e-16 0)
(3 -8.72421e-16 0)
(3 -9.75059e-16 0)
(3 -9.11147e-16 0)
(3 -1.15294e-15 0)
(3 -1.10509e-15 0)
(3 -9.2374e-16 0)
(3 -6.15827e-16 0)
(3 -2.56595e-16 0)
(3 5.13189e-17 0)
(3 1.78751e-17 0)
(3 5.39299e-16 0)
(3 7.08517e-16 0)
(3 6.7719e-16 0)
(3 4.07626e-16 0)
(3 8.57627e-15 0)
(3 -6.09304e-14 0)
(3 -1.4372e-13 0)
(3 -2.96553e-12 0)
(3 -1.2508e-11 0)
(3 1.88039e-10 0)
(3 -1.15997e-09 0)
(1.18104 1.06578 0)
(0.548881 0.633319 0)
(-0.585629 0.0356399 0)
(-0.432878 -0.164495 0)
(-0.587271 -0.162365 0)
(-0.464384 -0.0807772 0)
(-0.696481 0.0851296 0)
(-1.00349 0.137132 0)
(-1.17923 0.135849 0)
(-1.25388 0.0946226 0)
(-1.26926 0.0583455 0)
(-1.2567 0.0265223 0)
(-1.25185 0.0261556 0)
(-1.2645 0.0170144 0)
(-1.34727 -0.00219371 0)
(-1.41151 -0.0210192 0)
(-1.45251 -0.0200364 0)
(-1.47099 -0.0160756 0)
(-1.47451 -0.0131892 0)
(-1.46823 -0.00983034 0)
(-1.46594 -0.00735923 0)
(-1.46468 -0.00720011 0)
(-1.46988 -0.00483711 0)
(-1.47465 -0.0058127 0)
(-1.48533 -0.00156514 0)
(-1.4926 0.000994299 0)
(-1.49766 0.00714955 0)
(-1.50163 0.00778547 0)
(-1.50277 0.00897871 0)
(-1.49794 0.00770884 0)
(-1.49016 0.00843039 0)
(-1.46005 0.0102058 0)
(-1.43144 0.010643 0)
(-1.37323 0.00999956 0)
(-1.31316 0.00355954 0)
(-1.23543 -0.00861729 0)
(-1.15339 -0.0206926 0)
(-1.06961 -0.0328248 0)
(-0.971788 -0.0446667 0)
(-0.883985 -0.0530086 0)
(-0.803376 -0.0447371 0)
(-0.720556 -0.029825 0)
(-0.636805 -0.00867437 0)
(-0.543248 -0.00143621 0)
(-0.457365 0.00810104 0)
(-0.385182 0.0105578 0)
(-0.279767 -0.0219011 0)
(-0.178789 -0.0277951 0)
(-0.0870332 -0.0308893 0)
(0.00475628 -0.0308519 0)
(0.0917145 -0.0301007 0)
(0.166608 -0.0284844 0)
(0.238818 -0.0281812 0)
(0.306873 -0.0281054 0)
(0.371313 -0.0280872 0)
(0.430526 -0.0272204 0)
(0.485559 -0.0261388 0)
(0.53739 -0.0245572 0)
(0.585797 -0.0228189 0)
(0.630541 -0.0210524 0)
(0.672399 -0.0196562 0)
(0.712141 -0.0184266 0)
(0.749757 -0.0169674 0)
(0.785283 -0.0156138 0)
(0.818772 -0.014426 0)
(0.850714 -0.013306 0)
(0.881086 -0.0123935 0)
(0.910431 -0.0115496 0)
(0.93834 -0.0107546 0)
(0.965499 -0.0100611 0)
(0.991442 -0.00950308 0)
(1.01676 -0.00886177 0)
(1.04066 -0.0081947 0)
(1.0636 -0.00748915 0)
(1.08508 -0.00693876 0)
(1.10593 -0.00642039 0)
(1.12582 -0.00606874 0)
(1.14535 -0.00573538 0)
(1.16423 -0.0055146 0)
(1.18284 -0.00524185 0)
(1.20081 -0.00506312 0)
(1.21854 -0.00478334 0)
(1.23539 -0.00456434 0)
(1.25201 -0.0042695 0)
(1.26768 -0.00405432 0)
(1.28317 -0.00379634 0)
(1.2979 -0.00365252 0)
(1.31249 -0.00345532 0)
(1.32659 -0.00335966 0)
(1.34058 -0.00318301 0)
(1.35432 -0.0030938 0)
(1.368 -0.0028801 0)
(1.38147 -0.00279306 0)
(1.39484 -0.00249123 0)
(1.40819 -0.00243547 0)
(1.4213 -0.00203382 0)
(1.43475 -0.00210814 0)
(1.44802 -0.00155299 0)
(1.46216 -0.00145101 0)
(1.47821 0.000231353 0)
(1.22288 0.979691 0)
(1.17014 0.762385 0)
(0.72608 0.581309 0)
(0.641006 0.2877 0)
(0.127894 0.171014 0)
(-0.143289 0.133158 0)
(-0.352361 0.223627 0)
(-0.760746 0.139102 0)
(-0.882755 0.0351988 0)
(-0.92601 -0.0124342 0)
(-0.860146 -0.0500672 0)
(-0.829497 -0.0423404 0)
(-0.821747 -0.0349065 0)
(-0.874351 -0.0187396 0)
(-0.959716 -0.00819693 0)
(-1.02905 0.0366846 0)
(-1.07166 0.0566203 0)
(-1.08546 0.048601 0)
(-1.08235 0.0214052 0)
(-1.07491 0.0133071 0)
(-1.07129 0.00748859 0)
(-1.0701 0.00581692 0)
(-1.07555 0.00683277 0)
(-1.07902 0.00461591 0)
(-1.09128 0.00340782 0)
(-1.10065 -0.00156874 0)
(-1.11271 -0.00118236 0)
(-1.12025 -0.00699516 0)
(-1.12402 -0.00487102 0)
(-1.1183 -0.00864169 0)
(-1.10307 -0.00664055 0)
(-1.07376 -0.0139277 0)
(-1.03829 -0.0155002 0)
(-0.97925 -0.0230677 0)
(-0.913407 -0.0289476 0)
(-0.821766 -0.029233 0)
(-0.722787 -0.0392021 0)
(-0.625755 -0.0232972 0)
(-0.502516 -0.0459037 0)
(-0.403401 -0.0389167 0)
(-0.313126 -0.0390976 0)
(-0.17741 -0.0687978 0)
(-0.0782473 -0.0949729 0)
(0.100324 -0.120672 0)
(0.223404 -0.126421 0)
(0.375354 -0.145131 0)
(0.498969 -0.143849 0)
(0.58184 -0.13206 0)
(0.657318 -0.121767 0)
(0.724775 -0.118409 0)
(0.778415 -0.106824 0)
(0.82866 -0.0952608 0)
(0.876598 -0.0899375 0)
(0.917236 -0.0823494 0)
(0.95674 -0.0756118 0)
(0.98983 -0.0669023 0)
(1.02142 -0.061126 0)
(1.05105 -0.0558343 0)
(1.07948 -0.0505802 0)
(1.10587 -0.0455005 0)
(1.13165 -0.0415149 0)
(1.15622 -0.0384496 0)
(1.17909 -0.0354543 0)
(1.20149 -0.0324659 0)
(1.22272 -0.0297821 0)
(1.24321 -0.0274935 0)
(1.26294 -0.0255566 0)
(1.28232 -0.0237948 0)
(1.30099 -0.0222184 0)
(1.31941 -0.0206829 0)
(1.33746 -0.019076 0)
(1.35534 -0.017424 0)
(1.37273 -0.015818 0)
(1.38961 -0.0142732 0)
(1.40544 -0.0130014 0)
(1.42091 -0.0118544 0)
(1.43558 -0.0109103 0)
(1.44994 -0.0099585 0)
(1.46369 -0.00912562 0)
(1.47728 -0.00820873 0)
(1.49035 -0.00739109 0)
(1.50333 -0.00645193 0)
(1.51565 -0.00566591 0)
(1.52783 -0.00487041 0)
(1.5392 -0.00431962 0)
(1.55045 -0.00375736 0)