/*--------------------------------*- C++ -*----------------------------------*\
| =========                 |                                                 |
| \\      /  F ield         | OpenFOAM: The Open Source CFD Toolbox           |
|  \\    /   O peration     | Version:  v2106                                 |
|   \\  /    A nd           | Website:  www.openfoam.com                      |
|    \\/     M anipulation  |                                                 |
\*---------------------------------------------------------------------------*/
FoamFile
{
    version     2.0;
    format      ascii;
    arch        "LSB;label=32;scalar=64";
    class       volScalarField;
    location    "14";
    object      p;
}
// * * * * * * * * * * * * * * * * * * * * * * * * * * * * * * * * * * * * * //

dimensions      [1 -1 -2 0 0 0 0];

internalField   nonuniform List<scalar> 
5250
(
1
1
1
1
1
1
1
1
1.00002
1.00009
1.00122
1.00883
1.09492
1.64923
3.96664
10.3585
11.6513
10.9978
11.3377
11.5829
11.6776
11.8471
11.9613
12.0477
12.0992
1
1
1
1
1
1
1
1
1.00002
1.00008
1.00124
1.00848
1.09456
1.63305
3.90134
10.2459
11.7004
10.9742
11.3226
11.5749
11.6614
11.8299
11.9473
12.0316
12.0843
1
1
1
1
1
1
1
1
1.00001
1.00012
1.0011
1.00926
1.08673
1.59725
3.77558
10.0004
11.7832
10.9051
11.2762
11.5206
11.6108
11.7667
11.8802
11.9596
12.0069
1
1
1
1
1
1
1
1
1.00001
1.0001
1.00092
1.00814
1.07233
1.54093
3.56749
9.60521
11.9165
10.8211
11.2403
11.4536
11.5424
11.6887
11.7884
11.8637
11.9092
1
1
1
1
1
1
1
1
1.00001
1.00009
1.00079
1.00699
1.0617
1.47335
3.29671
9.07478
12.0922
10.6882
11.1527
11.3506
11.429
11.5465
11.6469
11.7183
11.7635
1
1
1
1
1
1
1
1
1.00001
1.00007
1.00059
1.00547
1.04602
1.3832
2.92358
8.31995
12.3461
10.5902
11.0685
11.2547
11.3332
11.4225
11.517
11.5486
11.5687
1
1
1
1
1
1
1
1
1.00001
1.00005
1.00045
1.00417
1.03494
1.31184
2.63767
7.4288
12.4572
10.47
10.9439
11.1218
11.1978
11.2266
11.2758
11.3085
11.3359
1
1
1
1
1
1
1
1
1
1.00004
1.00029
1.00307
1.02522
1.24402
2.34053
6.56568
12.4064
10.4564
10.817
10.9977
11.0549
11.0665
11.0489
11.06
10.9204
1
1
1
1
1
1
1
1
1
1.00003
1.00021
1.00255
1.01933
1.19625
2.12849
5.78864
11.7747
10.4971
10.6688
10.8061
10.8368
10.7924
10.6658
10.6124
10.3691
1
1
1
1
1
1
1
1
1
1.00003
1.00014
1.00195
1.01401
1.14875
1.90661
5.00685
10.8982
10.4633
10.5284
10.6053
10.6054
10.5308
10.2433
10.281
9.34122
1
1
1
1
1
1
1
1
1
1.00002
1.0001
1.00147
1.01001
1.1109
1.71172
4.23792
9.91279
10.5513
10.3568
10.2424
10.2696
10.1629
9.63951
9.30503
6.83309
1
1
1
1
1
1
1
1
1
1.00001
1.00012
1.00098
1.00883
1.07522
1.53179
3.53309
8.72273
10.593
10.1203
9.92816
9.88806
9.75894
9.04513
8.48724
6.56278
1
1
1
1
1
1
1
1
1
1.00001
1.00006
1.00054
1.00508
1.04102
1.36147
2.84286
7.4054
10.6281
9.77742
9.67319
9.54977
9.38595
8.74865
8.02056
6.66442
1
1
1
1
1
1
1
1
1
1
1.00002
1.00033
1.00251
1.02375
1.23519
2.30644
6.12136
10.5433
9.5966
9.44506
9.3158
9.07308
8.50746
7.78962
6.65382
1
1
1
1
1
1
1
1
1
1
1.00002
1.00019
1.00212
1.01505
1.15832
1.95234
5.04102
9.70519
9.53115
9.28355
9.09597
8.81918
8.28495
7.59455
6.63418
1
1
1
1
1
1
1
1
1
1
1.00002
1.00009
1.00129
1.00898
1.09785
1.64304
3.99102
8.39995
9.47383
9.10707
8.83961
8.52738
8.05739
7.4472
6.62769
1
1
1
1
1
1
1
1
1
1
1.00001
1.00008
1.0007
1.00596
1.05198
1.40628
3.04389
6.94056
9.36769
8.90741
8.61433
8.32188
7.9006
7.35099
6.63031
1
1
1
1
1
1
1
1
1
1
1
1.00005
1.00024
1.00345
1.02249
1.24571
2.24964
5.45775
8.96996
8.78976
8.49813
8.19627
7.78875
7.27624
6.63495
1
1
1
1
1
1
1
1
1
1
1
1.00002
1.0002
1.00173
1.01436
1.1243
1.78876
4.2572
8.00757
8.79421
8.44087
8.07359
7.66722
7.18713
6.61335
1
1
1
1
1
1
1
1
1
1
1
1.00003
1.00019
1.00018
1.00859
1.03552
1.50175
3.15324
6.55081
8.62087
8.25514
7.92667
7.5599
7.1279
6.60351
1
1
1
1
1
1
1
1
1
1
1
1.00001
1.00005
1.00035
1.0031
1.02451
1.2044
2.18162
5.03491
8.05362
8.14764
7.85852
7.498
7.08575
6.6013
1
1
1
1
1
1
1
1
1
1
1
1
1.00005
1.00026
0.999975
1.0147
1.04363
1.78695
3.79487
6.93099
8.17753
7.84447
7.47868
7.0754
6.61567
1
1
1
1
1
1
1
1
1
1
1
1
1.00001
1.00007
1.00056
1.00484
1.0385
1.29987
2.59975
5.47351
7.84462
7.68065
7.39374
7.03592
6.60874
1
1
1
1
1
1
1
1
1
1
1
1
1
1.00006
1.00035
1.00016
1.01973
1.03588
1.9248
4.15759
6.99527
7.73517
7.4115
7.04814
6.63136
1
1
1
1
1
1
1
1
1
1
1
1
1
1.00001
1.00011
1.00076
1.00659
1.04999
1.38215
2.87943
5.6033
7.51291
7.29616
6.99704
6.62759
1
1
1
1
1
1
1
1
1
1
1
1
1
1.00001
1.00007
1.00038
1.00039
1.0214
1.03223
2.01638
4.29001
6.80283
7.33426
7.02009
6.66024
1
1
1
1
1
1
1
1
1
1
1
1
1
1
1.00001
1.00012
1.00089
1.00777
1.05745
1.42575
2.95803
5.44449
7.10104
6.9202
6.633
1
1
1
1
1
1
1
1
1
1
1
1
1
1
1
1.00006
1.00024
1.00446
1.02719
1.02238
1.97119
4.12848
6.42252
6.96574
6.67461
1
1
1
1
1
1
1
1
1
1
1
1
1
1
1
1.00002
1.00013
1.00101
1.00801
1.05383
1.4251
2.86008
5.13133
6.71956
6.58446
1
1
1
1
1
1
1
1
1
1
1
1
1
1
1
1
1.00006
1.00027
1.00367
1.02269
1.02754
1.84746
3.80192
5.98458
6.63652
1
1
1
1
1
1
1
1
1
1
1
1
1
1
1
1
1.00001
1.00011
1.0007
1.00675
1.04259
1.3685
2.61609
4.73726
6.36178
1
1
1
1
1
1
1
1
1
1
1
1
1
1
1
1
1.00001
1.00002
1.0003
1.00119
1.01412
1.05612
1.74222
3.40546
5.44545
1
1
1
1
1
1
1
1
1
1
1
1
1
1
1
1
1
1.00001
1.00009
1.00051
1.00524
1.03332
1.29694
2.33076
4.21691
1
1
1
1
1
1
1
1
1
1
1
1
1
1
1
1
1
1
1.00001
1.0002
1.00082
1.01092
1.04929
1.60262
2.92116
1
1
1
1
1
1
1
1
1
1
1
1
1
1
1
1
1
1
1.00001
1.00007
1.00053
1.00381
1.02817
1.20839
2.0186
1
1
1
1
1
1
1
1
1
1
1
1
1
1
1
1
1
1
1
1.00001
1.00009
1.00067
1.00574
1.03711
1.35727
1
1
1
1
1
1
1
1
1
1
1
1
1
1
1
1
1
1
1
0.999992
0.999932
0.99929
0.994078
1.00833
1.05475
1
1
1
1
1
1
1
1
1
1
1
1
1
1
1
1
1
1
1
1
1
1
1.00029
1.00346
1.02288
1
1
1
1
1
1
1
1
1
1
1
1
1
1
1
1
1
1
1
1
0.999999
1.00001
0.999879
1.00019
1.00519
1
1
1
1
1
1
1
1
1
1
1
1
1
1
1
1
1
1
1
1
1
1
1.00002
1.00028
1.00051
1
1
1
1
1
1
1
1
1
1
1
1
1
1
1
1
1
1
1
1
1
1
1
1.00003
1.00043
1
1
1
1
1
1
1
1
1
1
1
1
1
1
1
1
1
1
1
1
1
1
1
1.00001
1.00006
1
1
1
1
1
1
1
1
1
1
1
1
1
1
1
1
1
1
1
1
1
1
1
1
1.00002
1
1
1
1
1
1
1
1
1
1
1
1
1
1
1
1
1
1
1
1
1
1
1
1
1
1
1
1
1
1
1
1
1
1
1
1
1
1
1
1
1
1
1
1
1
1
1
1
1
1
1
1
1
1
1
1
1
1
1
1
1
1
1
1
1
1
1
1
1
1
1
1
1
1
1
1
1
1
1
1
1
1
1
1
1
1
1
1
1
1
1
1
1
1
1
1
1
1
1
1
1
1
1
1
1
1
1
1
1
1
1
1
1
1
1
1
1
1
1
1
1
1
1
1
1
1
1
1
1
1
1
1
1
1
1
1
1
1
1
1
1
1
1
1
1
1
1
1
1
1
1
1
1
1
1
1
1
1
1
1
1
1
1
1
1
1
1
1
1
1
1
1
1
1
1
2.70779
3.09861
3.92582
3.33417
3.57791
3.58327
3.39221
2.95277
2.62968
2.5152
2.51191
2.52587
2.52555
2.49795
2.38227
2.2178
2.11629
2.0835
2.08855
2.09382
2.09902
2.09967
2.09334
2.08433
2.06934
2.05415
2.04047
2.03502
2.0312
2.03591
2.04627
2.07956
2.12703
2.20689
2.33756
2.48499
2.6317
2.77908
2.99456
3.18161
3.35156
3.55083
3.7493
3.95904
4.17003
4.31832
4.43055
4.5524
4.65118
4.71963
4.79808
4.85284
4.87422
4.889
4.89735
4.89236
4.87904
4.85802
4.82923
4.79509
4.75692
4.71496
4.66975
4.62214
4.57302
4.52217
4.47063
4.41915
4.36767
4.3163
4.26523
4.21437
4.16377
4.11331
4.06304
4.0127
3.96243
3.91202
3.86197
3.81275
3.76471
3.71801
3.67272
3.62858
3.58553
3.54327
3.50201
3.46165
3.42246
3.38468
3.3486
3.31431
3.282
3.25062
3.22049
3.18996
3.1598
3.12774
3.09613
3.07774
4.14304
4.04454
3.64126
3.31642
3.69895
3.73308
3.60287
3.00402
2.52559
2.39861
2.43778
2.50664
2.50709
2.44241
2.32127
2.20123
2.1261
2.09231
2.09447
2.09947
2.10346
2.10586
2.09896
2.09371
2.08062
2.06559
2.04567
2.035
2.02634
2.03355
2.04769
2.08472
2.13676
2.20182
2.31759
2.45229
2.59233
2.73663
2.96053
3.18317
3.37779
3.57191
3.76487
3.95174
4.15386
4.28833
4.39158
4.52368
4.63386
4.70687
4.78547
4.83852
4.86436
4.88066
4.89008
4.88609
4.87107
4.84925
4.82167
4.78814
4.75021
4.70852
4.66365
4.61644
4.5681
4.51762
4.4661
4.41465
4.36351
4.31266
4.26215
4.21176
4.16143
4.11114
4.06072
4.0103
3.95981
3.90936
3.85923
3.80991
3.76199
3.71557
3.6706
3.62678
3.58397
3.54197
3.50083
3.46056
3.42136
3.3835
3.34746
3.31332
3.28114
3.25022
3.22009
3.18995
3.1594
3.12715
3.09367
3.07393
4.98116
4.37495
3.97736
3.62405
3.65734
3.60642
3.26082
2.70561
2.49081
2.46825
2.511
2.54594
2.53666
2.51179
2.44535
2.27445
2.10323
2.05291
2.04837
2.08072
2.09457
2.10146
2.09128
2.08097
2.06374
2.05055
2.03411
2.03888
2.03076
2.03877
2.04274
2.07138
2.11614
2.18321
2.31104
2.46892
2.64255
2.74489
2.94801
3.14462
3.29145
3.4963
3.70457
3.90951
4.13087
4.27717
4.38425
4.49094
4.59336
4.67523
4.74392
4.80382
4.83355
4.84715
4.85527
4.85449
4.8464
4.82862
4.8027
4.77056
4.73414
4.69482
4.6517
4.60563
4.55773
4.50792
4.45751
4.40745
4.35762
4.30752
4.25715
4.20667
4.15629
4.10623
4.05625
4.00625
3.95601
3.90529
3.85485
3.80552
3.75791
3.71211
3.66781
3.62451
3.58204
3.54023
3.49927
3.45918
3.42011
3.38235
3.3465
3.31264
3.28078
3.25022
3.22008
3.19007
3.15942
3.12672
3.09145
3.07025
5.37508
4.50976
4.049
3.69714
3.62738
3.5865
3.33566
2.92792
2.63946
2.49825
2.4744
2.51387
2.51193
2.44124
2.29293
2.13527
2.08666
2.07819
2.08659
2.10834
2.10507
2.11275
2.10254
2.10013
2.08342
2.07991
2.04308
2.03677
2.01463
2.02412
2.03434
2.07196
2.12675
2.16755
2.27732
2.40407
2.53992
2.69235
2.8761
3.10515
3.29545
3.45882
3.64991
3.82007
4.01109
4.18125
4.31467
4.41067
4.52631
4.63487
4.6775
4.7392
4.78784
4.81764
4.83163
4.82878
4.81546
4.79635
4.77574
4.74993
4.71581
4.67615
4.63325
4.58839
4.54222
4.49461
4.44529
4.3959
4.34663
4.29747
4.24847
4.1996
4.15023
4.10012
4.04954
3.99898
3.94824
3.89751
3.84734
3.7983
3.75137
3.70645
3.66292
3.62044
3.57858
3.53736
3.49687
3.45717
3.41838
3.38075
3.34511
3.31167
3.2801
3.24994
3.21994
3.19007
3.15951
3.12652
3.08978
3.06662
5.53428
4.74109
4.15863
3.83882
3.71442
3.62233
3.40839
2.98159
2.59221
2.47009
2.47701
2.52701
2.51272
2.45912
2.37325
2.24605
2.14633
2.08462
2.06429
2.08391
2.09414
2.10158
2.0913
2.08191
2.06186
2.04875
2.02422
2.03543
2.02683
2.03593
2.03629
2.05478
2.08909
2.15408
2.24974
2.38376
2.5205
2.65836
2.789
2.96904
3.15698
3.36079
3.56285
3.73436
3.91322
4.06767
4.20238
4.30842
4.44131
4.54941
4.6063
4.67397
4.72634
4.74984
4.76557
4.76369
4.76536
4.76034
4.74283
4.71826
4.68336
4.64606
4.60906
4.56778
4.52264
4.47482
4.42708
4.38065
4.3344
4.28754
4.23922
4.18934
4.13932
4.08962
4.04
3.99048
3.94033
3.88947
3.83899
3.79051
3.74467
3.70098
3.65847
3.61668
3.57523
3.53421
3.49398
3.45477
3.41639
3.37919
3.34411
3.31118
3.28002
3.25014
3.22028
3.19032
3.15964
3.12629
3.08837
3.06364
5.67378
4.93701
4.37419
4.00705
3.81415
3.6906
3.49304
3.12076
2.76301
2.56955
2.53192
2.54195
2.523
2.45182
2.33802
2.1991
2.11458
2.07966
2.07979
2.10194
2.10509
2.1109
2.0998
2.09576
2.0759
2.07303
2.0422
2.0419
2.01692
2.02881
2.04034
2.06919
2.10461
2.14684
2.19737
2.27123
2.34839
2.45533
2.5659
2.72825
2.90109
3.1232
3.34892
3.56311
3.75628
3.93159
4.09629
4.21436
4.31104
4.38219
4.48867
4.59832
4.65937
4.6875
4.70335
4.7029
4.71171
4.71206
4.69756
4.67894
4.65438
4.61831
4.58171
4.54186
4.4979
4.45325
4.40913
4.36473
4.31916
4.27254
4.22542
4.17769
4.12954
4.08074
4.03093
3.97995
3.92885
3.8787
3.83004
3.78321
3.73855
3.69567
3.65373
3.61229
3.57117
3.53063
3.4909
3.45226
3.41456
3.37799
3.34341
3.31104
3.28023
3.25037
3.2205
3.19051
3.15986
3.12638
3.08764
3.06182
5.80302
5.11659
4.57351
4.187
3.921
3.79001
3.58183
3.28356
2.98354
2.70168
2.55872
2.52761
2.51415
2.47566
2.40245
2.2831
2.16768
2.10397
2.07908
2.0857
2.09303
2.10025
2.09202
2.08237
2.06679
2.05727
2.03606
2.04695
2.03437
2.06676
2.09254
2.11478
2.13334
2.17167
2.17755
2.19319
2.24372
2.30089
2.37812
2.46674
2.57977
2.73681
2.90932
3.10819
3.33623
3.6114
3.89225
4.12372
4.25259
4.28793
4.35622
4.42753
4.51843
4.60708
4.6484
4.6721
4.65372
4.64275
4.64299
4.6336
4.61704
4.58367
4.54329
4.50874
4.4717
4.4314
4.38917
4.3459
4.30167
4.25666
4.21092
4.16411
4.11612
4.06684
4.01674
3.96671
3.91728
3.86872
3.8215
3.77584
3.73214
3.68996
3.64846
3.60739
3.56663
3.52645
3.48722
3.44929
3.41237
3.37649
3.34246
3.31056
3.28002
3.25013
3.22032
3.19032
3.15955
3.12574
3.08616
3.05942
5.90899
5.26135
4.72956
4.32333
4.05411
3.87387
3.69653
3.43625
3.15376
2.8876
2.67343
2.56988
2.54394
2.50905
2.45568
2.35099
2.21066
2.10957
2.0706
2.07128
2.09081
2.11147
2.10548
2.09343
2.07201
2.07096
2.05768
2.07684
2.0779
2.12544
2.21968
2.27407
2.2891
2.27976
2.24009
2.20609
2.2035
2.21709
2.25146
2.28256
2.35323
2.44503
2.54396
2.68386
2.85198
3.06856
3.35215
3.69643
4.04278
4.27739
4.36195
4.34147
4.37412
4.44566
4.53137
4.5977
4.61152
4.60109
4.59779
4.57707
4.56174
4.54902
4.5164
4.47976
4.44314
4.40423
4.3657
4.32768
4.28674
4.24215
4.19554
4.14823
4.10085
4.05343
4.00506
3.95563
3.90641
3.85889
3.81322
3.76907
3.72633
3.68479
3.64386
3.60308
3.56247
3.52256
3.48408
3.44707
3.41104
3.37598
3.34241
3.31066
3.28014
3.25008
3.22009
3.18984
3.15877
3.12455
3.08421
3.05675
5.96822
5.36582
4.85404
4.45264
4.19212
3.96155
3.79623
3.56635
3.31352
3.0493
2.81813
2.66105
2.58731
2.53965
2.48454
2.39861
2.2862
2.17749
2.11119
2.08859
2.09037
2.10112
2.10863
2.10221
2.09266
2.07547
2.09013
2.09654
2.21317
2.31039
2.51799
2.5773
2.57437
2.50906
2.39892
2.30943
2.26555
2.24287
2.22704
2.23436
2.2577
2.2883
2.32768
2.40308
2.47902
2.61206
2.8131
3.05082
3.36921
3.79653
4.20164
4.38427
4.3751
4.36293
4.39187
4.44277
4.51598
4.55139
4.55532
4.52816
4.5053
4.49921
4.48181
4.45057
4.4166
4.38045
4.3416
4.30284
4.26414
4.22318
4.17983
4.13468
4.08825
4.03969
3.9908
3.9429
3.89604
3.85056
3.80646
3.76339
3.72091
3.67905
3.63791
3.59738
3.5574
3.51841
3.48089
3.44481
3.40976
3.37545
3.34208
3.31019
3.27949
3.24918
3.21895
3.18841
3.15689
3.12205
3.08071
3.05244
6.02729
5.46237
4.97205
4.57867
4.30785
4.05639
3.88879
3.67882
3.43902
3.18683
2.94815
2.7578
2.64191
2.58491
2.52384
2.44765
2.36045
2.26696
2.18003
2.1201
2.09399
2.08762
2.09642
2.09311
2.10161
2.09136
2.1351
2.17024
2.41205
2.69882
3.03208
3.05146
2.97471
2.78976
2.6063
2.47458
2.38663
2.3293
2.28642
2.25979
2.24608
2.24094
2.24878
2.27474
2.30007
2.36879
2.44915
2.56068
2.77126
3.07808
3.45642
3.95233
4.31964
4.44494
4.38079
4.34916
4.37676
4.42847
4.46364
4.48727
4.46579
4.44822
4.43609
4.41227
4.38367
4.35505
4.32409
4.2858
4.24405
4.20159
4.15914
4.11548
4.07035
4.02356
3.97599
3.92946
3.88459
3.84089
3.79781
3.75519
3.71351
3.67276
3.63252
3.59275
3.55354
3.51542
3.47879
3.44346
3.40885
3.37481
3.34151
3.30931
3.27809
3.24735
3.21671
3.18565
3.15343
3.11777
3.0754
3.0462
6.06971
5.54184
5.07368
4.69356
4.39849
4.14973
3.97297
3.77282
3.5474
3.3136
3.07797
2.86964
2.7209
2.63346
2.56487
2.5085
2.42849
2.34274
2.25456
2.17658
2.12149
2.09902
2.10019
2.10365
2.11303
2.13685
2.19933
2.37147
2.81452
3.42409
3.60223
3.53973
3.36244
3.12348
2.91693
2.75037
2.61998
2.52381
2.44575
2.378
2.32052
2.27297
2.24375
2.23999
2.24236
2.2551
2.26657
2.31501
2.41326
2.54358
2.76117
3.1169
3.59563
4.13986
4.41013
4.42075
4.35468
4.32812
4.33695
4.39069
4.40086
4.40104
4.39516
4.37318
4.34169
4.31777
4.29481
4.26379
4.22434
4.18194
4.13977
4.09775
4.05437
4.00888
3.96215
3.91659
3.87327
3.83146
3.78985
3.74808
3.70652
3.66569
3.62591
3.58676
3.54832
3.5111
3.47555
3.4411
3.40712
3.37351
3.34034
3.3079
3.27617
3.24479
3.21347
3.18172
3.14883
3.11243
3.06918
3.03927
6.1166
5.62116
5.16914
4.79104
4.48244
4.24006
4.05424
3.85991
3.64672
3.42133
3.19537
2.98511
2.81692
2.69914
2.61595
2.55204
2.48248
2.40675
2.31642
2.23038
2.1625
2.11883
2.10305
2.10606
2.12802
2.18615
2.32189
2.70605
3.41513
4.1422
4.10694
3.97578
3.72951
3.48088
3.26571
3.07749
2.92002
2.78052
2.66418
2.56877
2.4843
2.40487
2.33946
2.29217
2.25552
2.22816
2.22013
2.22631
2.242
2.27671
2.36822
2.54123
2.82156
3.22183
3.76851
4.2597
4.43703
4.36858
4.28796
4.26331
4.29959
4.34039
4.34388
4.33654
4.31084
4.28136
4.25679
4.23221
4.20044
4.16277
4.12033
4.07668
4.03184
3.98836
3.9451
3.90198
3.86005
3.81951
3.77957
3.73993
3.70044
3.66069
3.62097
3.58211
3.54445
3.50817
3.47329
3.4393
3.40574
3.37254
3.33962
3.30707
3.27488
3.24284
3.2107
3.17806
3.14425
3.10684
3.06244
3.0317
6.1396
5.67718
5.24759
4.87631
4.55993
4.31122
4.11583
3.93395
3.74276
3.52681
3.3121
3.10062
2.92123
2.78322
2.67835
2.60327
2.54269
2.46315
2.3797
2.29792
2.22259
2.16
2.12401
2.1332
2.17154
2.2882
2.58597
3.25213
4.1188
4.56781
4.5063
4.31492
4.04887
3.79793
3.57029
3.37174
3.19367
3.03715
2.90496
2.78327
2.67178
2.57813
2.49647
2.41733
2.34491
2.28773
2.24999
2.21757
2.19061
2.18804
2.20985
2.26047
2.37079
2.57894
2.90735
3.36995
3.97441
4.33745
4.3948
4.28836
4.23524
4.22868
4.24683
4.26941
4.26801
4.24828
4.22294
4.19571
4.16568
4.13233
4.09477
4.05384
4.00988
3.96595
3.92504
3.88519
3.84572
3.80687
3.76815
3.7294
3.6908
3.65265
3.61445
3.57639
3.53915
3.50345
3.46921
3.43587
3.40296
3.37033
3.33771
3.30513
3.2725
3.23978
3.20674
3.17319
3.13848
3.1003
3.05497
3.02341
6.18238
5.7415
5.32771
4.9574
4.6434
4.38467
4.18135
4.00025
3.81624
3.61596
3.41677
3.21587
3.02128
2.87366
2.75362
2.65922
2.58663
2.51553
2.44867
2.36345
2.2812
2.19853
2.1717
2.19114
2.27147
2.51346
3.11328
4.07392
4.75079
4.79581
4.69197
4.50308
4.29043
4.07594
3.86648
3.66281
3.47077
3.30003
3.14422
3.00147
2.87937
2.77362
2.66713
2.56417
2.4816
2.41753
2.34896
2.27719
2.21601
2.17835
2.17137
2.16653
2.19596
2.25031
2.38628
2.63945
3.01096
3.5393
4.12371
4.39508
4.35186
4.21974
4.17045
4.17387
4.20476
4.20845
4.19293
4.16601
4.13638
4.10192
4.06576
4.03108
3.99296
3.94875
3.90466
3.86636
3.83065
3.79559
3.75988
3.72274
3.68447
3.64578
3.60784
3.57074
3.53434
3.49931
3.4657
3.43296
3.40049
3.3682
3.33579
3.30321
3.27022
3.23691
3.20304
3.1685
3.13262
3.09325
3.04651
3.01376
6.21066
5.78952
5.39079
5.02136
4.71201
4.4569
4.2441
4.06919
3.88973
3.70149
3.50735
3.32082
3.12813
2.96692
2.8366
2.72458
2.63745
2.57196
2.49879
2.42339
2.34096
2.27295
2.24881
2.29796
2.48123
2.98828
3.89448
4.71139
4.97195
4.89256
4.77465
4.63809
4.47894
4.299
4.0997
3.89896
3.70544
3.52606
3.35964
3.21111
3.08074
2.95293
2.83104
2.72894
2.64471
2.55743
2.46442
2.38824
2.32394
2.25738
2.20874
2.16978
2.14892
2.13626
2.17776
2.25553
2.42443
2.71759
3.14752
3.74431
4.22369
4.37577
4.25554
4.12669
4.09106
4.10734
4.13886
4.12498
4.09979
4.07233
4.0368
3.999
3.96389
3.92842
3.88962
3.84891
3.81104
3.77647
3.74367
3.71065
3.67669
3.64071
3.60229
3.56402
3.52761
3.4931
3.45994
3.42771
3.39591
3.36435
3.33256
3.30026
3.26703
3.23287
3.19757
3.16142
3.12402
3.0835
3.03569
3.00184
6.25884
5.85477
5.46648
5.09813
4.78387
4.52909
4.31141
4.12852
3.96008
3.7889
3.60053
3.41522
3.23627
3.06276
2.92457
2.80241
2.70112
2.62712
2.55209
2.48005
2.40115
2.36445
2.37842
2.50675
2.9194
3.73834
4.63259
5.005
4.99141
4.93902
4.85886
4.75146
4.61736
4.46259
4.29001
4.1065
3.92069
3.74169
3.56861
3.41034
3.26642
3.12638
3.00287
2.90033
2.78996
2.68547
2.60033
2.52501
2.44916
2.37541
2.30476
2.2378
2.18275
2.1411
2.11271
2.11884
2.15973
2.26753
2.47472
2.84086
3.33283
3.96018
4.27111
4.26578
4.1352
4.04798
4.02434
4.04003
4.05356
4.04237
4.01674
3.97703
3.93618
3.89998
3.86839
3.83384
3.79774
3.76385
3.73121
3.69857
3.66591
3.63266
3.59715
3.55958
3.52282
3.48856
3.45619
3.4248
3.39378
3.36259
3.33057
3.29749
3.26314
3.2277
3.19118
3.15379
3.11505
3.07321
3.02374
2.98823
6.28122
5.8976
5.52793
5.16477
4.8558
4.59815
4.37875
4.1921
4.02863
3.86251
3.68509
3.50494
3.33054
3.1585
3.01247
2.87732
2.76461
2.68377
2.60102
2.52633
2.47965
2.48659
2.5954
2.93529
3.66089
4.58329
5.01831
5.02786
5.0113
4.97405
4.91416
4.82988
4.72129
4.58948
4.43706
4.27047
4.09827
3.92512
3.75529
3.59666
3.44071
3.29536
3.17794
3.05093
2.93333
2.83331
2.74476
2.65531
2.57185
2.48677
2.39448
2.31935
2.24962
2.18828
2.1381
2.1092
2.07681
2.10579
2.17687
2.3152
2.56023
2.94654
3.48496
4.0437
4.27135
4.19455
4.02512
3.96659
3.96805
3.98094
3.98866
3.9691
3.92412
3.8711
3.82965
3.80148
3.77522
3.74787
3.71939
3.68971
3.65792
3.62421
3.58956
3.55384
3.51827
3.4846
3.4525
3.42093
3.38943
3.35788
3.32565
3.29212
3.25688
3.21993
3.18182
3.14284
3.10263
3.05934
3.0083
2.97146
6.33645
5.96973
5.60543
5.24918
4.92399
4.66935
4.44378
4.2579
4.10042
3.93669
3.76084
3.58724
3.42047
3.25586
3.10094
2.95666
2.83524
2.73545
2.63853
2.59309
2.5946
2.6855
2.99259
3.67253
4.6321
5.09359
5.093
5.06606
5.03295
4.99888
4.95445
4.89347
4.80539
4.69337
4.55591
4.40788
4.25166
4.09059
3.92724
3.76569
3.60605
3.46888
3.32804
3.19228
3.08364
2.97326
2.86378
2.76901
2.67836
2.58556
2.49461
2.4164
2.33802
2.27031
2.20396
2.1375
2.09311
2.07028
2.0766
2.10024
2.17871
2.33876
2.64468
3.09504
3.7065
4.1014
4.1603
4.05547
3.9333
3.89226
3.90246
3.90382
3.89109
3.85963
3.818
3.77657
3.74799
3.72719
3.70702
3.68434
3.65504
3.62016
3.58234
3.54522
3.51096
3.4786
3.44688
3.41508
3.3833
3.35132
3.31843
3.28397
3.24775
3.20963
3.17045
3.13003
3.0885
3.04386
2.99132
2.95323
6.33471
6.01926
5.68793
5.35618
5.01667
4.75494
4.52755
4.3244
4.16976
4.01489
3.84381
3.66427
3.5039
3.34682
3.19272
3.04698
2.91255
2.77952
2.71858
2.69925
2.77877
3.04932
3.69948
4.67734
5.24957
5.24025
5.18172
5.1068
5.05681
5.02239
4.98321
4.93082
4.85888
4.76648
4.65426
4.52235
4.37843
4.22047
4.06654
3.91112
3.76401
3.6207
3.4745
3.34918
3.22064
3.09443
2.98508
2.8868
2.78207
2.68315
2.59792
2.51334
2.43314
2.35572
2.28449
2.21609
2.16114
2.10901
2.07473
2.04808
2.04853
2.08107
2.19251
2.40684
2.75013
3.23858
3.83346
4.11328
4.0863
3.95674
3.853
3.81279
3.82369
3.82098
3.80584
3.77402
3.73949
3.7118
3.68953
3.66788
3.64366
3.61394
3.57854
3.54027
3.50391
3.47052
3.43849
3.40626
3.37404
3.34145
3.3075
3.27166
3.23423
3.1952
3.15554
3.11458
3.07218
3.02605
2.97151
2.93188
6.36097
6.06827
5.7555
5.44115
5.10867
4.82743
4.60407
4.39556
4.22693
4.08026
3.92052
3.74347
3.57815
3.43151
3.28296
3.13461
2.97379
2.86147
2.83087
2.87923
3.11146
3.73107
4.72961
5.42153
5.4407
5.36156
5.25015
5.16318
5.10645
5.06145
5.01469
4.96123
4.89827
4.81958
4.72528
4.60995
4.47931
4.33475
4.18802
4.03649
3.88448
3.73379
3.59682
3.4601
3.32142
3.20312
3.09722
2.98622
2.8763
2.77486
2.68502
2.59597
2.51166
2.43222
2.35746
2.29724
2.23941
2.18476
2.12961
2.07143
2.03445
2.0075
2.03123
2.07222
2.21905
2.4794
2.88269
3.45442
3.9363
4.07237
3.97254
3.84539
3.76458
3.74305
3.74361
3.74121
3.72717
3.7072
3.68159
3.65572
3.63069
3.60334
3.57156
3.53449
3.49623
3.46097
3.42795
3.39487
3.36176
3.32886
3.2948
3.25829
3.21955
3.17902
3.13768
3.09594
3.05323
3.00623
2.95021
2.90926
6.35385
6.13373
5.86123
5.55691
5.23
4.91839
4.68409
4.47313
4.30137
4.14726
3.99226
3.82214
3.65509
3.50787
3.36802
3.21596
3.05965
2.99111
3.01206
3.19646
3.75778
4.72765
5.57274
5.72381
5.58117
5.41698
5.30367
5.23058
5.16249
5.10072
5.04363
4.98632
4.92531
4.85556
4.77317
4.67639
4.56313
4.43907
4.29969
4.15182
4.00027
3.85106
3.70471
3.5633
3.43698
3.31777
3.20027
3.08774
2.98697
2.88875
2.79132
2.69434
2.60542
2.52123
2.44591
2.38436
2.32119
2.25498
2.1927
2.13154
2.07076
2.01471
1.98494
1.96499
1.99739
2.09196
2.27391
2.60719
3.06759
3.66944
3.95986
3.96466
3.85016
3.74393
3.68965
3.68622
3.68292
3.6771
3.66846
3.64956
3.6224
3.58879
3.55359
3.518
3.4821
3.44718
3.41352
3.38026
3.34714
3.31378
3.27829
3.23999
3.20009
3.15993
3.1185
3.07551
3.03098
2.98269
2.92617
2.88458
6.29966
6.1329
5.89439
5.61218
5.32429
5.00923
4.76899
4.54837
4.34956
4.20883
4.067
3.90407
3.73627
3.58403
3.43991
3.28662
3.19126
3.1771
3.32942
3.82827
4.7745
5.74663
5.98241
5.82546
5.6353
5.49935
5.40731
5.31865
5.23226
5.15528
5.0871
5.02179
4.95652
4.88657
4.80994
4.72313
4.62365
4.5117
4.38763
4.25458
4.11643
3.97334
3.83096
3.69177
3.55761
3.42797
3.30821
3.19706
3.08939
2.98649
2.88341
2.78422
2.68867
2.60615
2.5325
2.46567
2.39483
2.32478
2.25466
2.1906
2.12644
2.06145
1.99835
1.96352
1.92795
1.94527
2.00753
2.13851
2.38702
2.72785
3.24468
3.7549
3.93343
3.87183
3.74811
3.6584
3.6205
3.6269
3.63359
3.63273
3.61761
3.58841
3.54731
3.50421
3.46643
3.43244
3.39957
3.36515
3.32949
3.2956
3.2603
3.22063
3.17904
3.13778
3.09583
3.05271
3.00736
2.95774
2.90023
2.8583
5.83295
6.15129
5.93035
5.68704
5.41897
5.12898
4.85783
4.64217
4.41998
4.26184
4.13237
3.98148
3.80585
3.64013
3.50586
3.40018
3.37677
3.49554
3.94963
4.87439
5.9363
6.27284
6.08529
5.8735
5.72774
5.62155
5.51474
5.40575
5.3038
5.21134
5.12887
5.05411
4.98257
4.91044
4.83499
4.75351
4.6642
4.56479
4.45508
4.33468
4.20512
4.07095
3.93167
3.79319
3.65742
3.52767
3.40389
3.2859
3.17338
3.0671
2.9652
2.86649
2.77245
2.68487
2.60526
2.53056
2.46211
2.39937
2.334
2.26925
2.20116
2.13056
2.06093
2.00033
1.94843
1.91894
1.92931
1.95671
2.02639
2.17629
2.48722
2.89395
3.45873
3.80055
3.83781
3.74846
3.65103
3.59765
3.5832
3.58861
3.59242
3.5723
3.53659
3.49181
3.44706
3.40948
3.37793
3.34627
3.31015
3.2744
3.23869
3.19774
3.15463
3.1126
3.06983
3.02612
2.98062
2.93079
2.87272
2.83064
4.84481
6.00924
5.96739
5.76627
5.52768
5.26321
4.97355
4.7376
4.51842
4.32611
4.19166
4.05019
3.88011
3.70984
3.60142
3.58039
3.69448
4.11935
5.0103
6.15931
6.63274
6.39807
6.13514
5.96744
5.85558
5.7423
5.62208
5.50196
5.38842
5.28329
5.18616
5.09745
5.01632
4.9374
4.85837
4.77738
4.69174
4.60007
4.50012
4.39115
4.27433
4.14999
4.02088
3.88914
3.75811
3.62951
3.50573
3.38671
3.27067
3.15749
3.04939
2.94797
2.85451
2.76543
2.67682
2.59973
2.53396
2.4644
2.40318
2.33542
2.25773
2.179
2.10821
2.04981
1.99477
1.95103
1.91926
1.90553
1.89647
1.96266
2.07427
2.26852
2.60293
3.0636
3.58132
3.80095
3.76711
3.66033
3.58741
3.54776
3.53788
3.53245
3.51682
3.47953
3.43398
3.38944
3.35061
3.31776
3.28306
3.24614
3.21057
3.17058
3.12629
3.08362
3.04067
2.99552
2.94917
2.90031
2.8436
2.80208
3.68258
5.36828
5.9947
5.84015
5.61533
5.35894
5.08041
4.82968
4.61091
4.39916
4.25023
4.10798
3.93841
3.83298
3.78784
3.8965
4.30981
5.18523
6.41198
7.00554
6.72657
6.4073
6.20883
6.08968
5.97043
5.84767
5.72007
5.59316
5.46973
5.35204
5.24103
5.13873
5.04567
4.95963
4.87624
4.79278
4.70814
4.62007
4.52715
4.42784
4.32133
4.20809
4.08984
3.96651
3.84092
3.71605
3.59245
3.47314
3.35533
3.24151
3.12911
3.02284
2.92299
2.83501
2.75126
2.67429
2.59999
2.52851
2.4595
2.39014
2.31716
2.24351
2.17235
2.10984
2.05417
2.00952
1.96795
1.92988
1.90576
1.89928
1.90979
1.9781
2.11807
2.37145
2.72341
3.24519
3.62891
3.73079
3.67674
3.58471
3.51128
3.47921
3.46493
3.44973
3.41313
3.36884
3.32611
3.2857
3.24863
3.21104
3.17548
3.13903
3.09586
3.0521
3.00979
2.96443
2.91727
2.86864
2.81325
2.77248
2.42449
4.18922
5.57907
5.84902
5.65045
5.41975
5.16832
4.91964
4.7087
4.49635
4.29931
4.16634
4.04868
4.00664
4.11465
4.53662
5.43975
6.76463
7.42176
7.10668
6.74368
6.50831
6.3671
6.23008
6.09307
5.95784
5.82447
5.69216
5.56148
5.43462
5.31288
5.19752
5.0906
4.99199
4.89959
4.81119
4.7233
4.63508
4.54486
4.451
4.35211
4.24823
4.13855
4.02505
3.90943
3.79079
3.67402
3.55632
3.44202
3.32654
3.21343
3.10336
3.00124
2.90873
2.82918
2.74567
2.6647
2.58723
2.51079
2.4394
2.3693
2.29743
2.22608
2.16072
2.10893
2.06106
2.01389
1.9696
1.93112
1.89839
1.88908
1.89037
1.91867
1.99984
2.17791
2.49092
2.89989
3.41679
3.65439
3.64824
3.56689
3.48036
3.42303
3.3902
3.37251
3.34364
3.30251
3.25882
3.21513
3.17324
3.13672
3.1046
3.06446
3.01951
2.97727
2.93365
2.88568
2.83531
2.77995
2.7399
1.63762
2.94356
4.67335
5.67082
5.6624
5.47955
5.26901
5.03546
4.81794
4.60614
4.36529
4.25308
4.23749
4.33274
4.77399
5.72527
7.14817
7.87201
7.52192
7.11572
6.83976
6.67165
6.51928
6.36237
6.20812
6.06198
5.92187
5.7833
5.64644
5.51217
5.38152
5.25589
5.13686
5.02568
4.92281
4.82637
4.73459
4.64429
4.55324
4.46112
4.36656
4.26886
4.16832
4.06449
3.95781
3.84873
3.73784
3.62569
3.51261
3.39796
3.28169
3.1665
3.05925
2.96407
2.88011
2.80001
2.72109
2.64298
2.56622
2.48966
2.41401
2.33981
2.27326
2.2143
2.162
2.11398
2.0685
2.02539
1.98302
1.93909
1.89478
1.86924
1.85508
1.85775
1.92139
2.03604
2.26343
2.62603
3.11132
3.48615
3.60444
3.56382
3.46436
3.3678
3.31443
3.28793
3.25601
3.22127
3.18339
3.14042
3.09629
3.06146
3.02666
2.98285
2.93876
2.89883
2.85456
2.80411
2.74722
2.70658
1.20682
1.97184
3.51026
5.07983
5.69593
5.58381
5.36762
5.15059
4.92391
4.67184
4.50105
4.43562
4.57006
5.03664
6.05531
7.5903
8.38584
8.00207
7.54347
7.23114
7.04286
6.86915
6.69512
6.51644
6.34681
6.18734
6.03375
5.88446
5.73881
5.59655
5.45797
5.32356
5.1941
5.0705
4.95429
4.84699
4.74693
4.65176
4.55873
4.46599
4.37307
4.28007
4.18562
4.08973
3.99189
3.89146
3.78861
3.68353
3.57622
3.46616
3.35372
3.24263
3.13719
3.04042
2.95277
2.8703
2.79021
2.71267
2.63507
2.55761
2.47956
2.40135
2.33049
2.26995
2.22047
2.17409
2.13076
2.08414
2.03681
1.98969
1.9438
1.90091
1.85539
1.8309
1.8241
1.84004
1.93569
2.10592
2.38778
2.7714
3.25834
3.4955
3.49904
3.42374
3.31693
3.23704
3.19129
3.16946
3.14035
3.10749
3.06917
3.02784
2.98527
2.94225
2.89998
2.86019
2.81784
2.76878
2.7119
2.67049
1.03836
1.35072
2.49727
4.01732
5.24809
5.559
5.3949
5.19701
4.97056
4.76667
4.68462
4.78816
5.29414
6.38467
8.03077
8.88985
8.47767
7.96671
7.61074
7.40494
7.21867
7.03309
6.83918
6.64496
6.46358
6.293
6.13042
5.9728
5.81968
5.67081
5.52553
5.38389
5.24637
5.11381
4.98757
4.86992
4.76158
4.6598
4.56194
4.46676
4.37385
4.28178
4.19117
4.10101
4.00991
3.91712
3.8222
3.72447
3.62345
3.51811
3.40971
3.30146
3.19671
3.0981
3.00715
2.92213
2.84087
2.76122
2.68242
2.60296
2.5224
2.44511
2.37568
2.31709
2.26594
2.21907
2.17551
2.13242
2.0907
2.04795
2.00505
1.96007
1.91039
1.85676
1.81529
1.79615
1.80369
1.84743
1.94736
2.16325
2.48798
2.89849
3.25802
3.39081
3.36334
3.27405
3.17809
3.10652
3.06528
3.03673
3.01233
2.98216
2.94359
2.90005
2.85601
2.81545
2.77493
2.72838
2.67404
2.63335
1.01076
1.05314
1.5374
2.6421
4.16601
5.19473
5.33556
5.19831
5.00329
4.92032
5.04617
5.62196
6.80683
8.56514
9.44749
8.98692
8.42465
8.02454
7.79976
7.61549
7.4173
7.2145
7.00037
6.79337
6.59812
6.41282
6.23553
6.06604
5.90378
5.747
5.5949
5.44652
5.30181
5.16152
5.02661
4.89894
4.7807
4.671
4.56693
4.46629
4.36978
4.27898
4.19138
4.10566
4.01975
3.93312
3.84486
3.75358
3.65829
3.55871
3.45618
3.35452
3.25558
3.16133
3.07191
2.98656
2.90423
2.82369
2.74386
2.66444
2.58597
2.51028
2.44094
2.37973
2.32603
2.27811
2.23288
2.1877
2.1427
2.09751
2.05279
2.00911
1.96111
1.90731
1.85293
1.80257
1.77789
1.76086
1.76908
1.85224
1.98512
2.23374
2.58116
2.99459
3.23199
3.26026
3.20675
3.11019
3.03087
2.97768
2.94804
2.91729
2.88912
2.85377
2.81141
2.77136
2.73104