/*--------------------------------*- C++ -*----------------------------------*\
| =========                 |                                                 |
| \\      /  F ield         | OpenFOAM: The Open Source CFD Toolbox           |
|  \\    /   O peration     | Version:  v2106                                 |
|   \\  /    A nd           | Website:  www.openfoam.com                      |
|    \\/     M anipulation  |                                                 |
\*---------------------------------------------------------------------------*/
FoamFile
{
    version     2.0;
    format      ascii;
    arch        "LSB;label=32;scalar=64";
    class       surfaceScalarField;
    location    "14";
    object      phi;
}
// * * * * * * * * * * * * * * * * * * * * * * * * * * * * * * * * * * * * * //

dimensions      [1 0 -1 0 0 0 0];

oriented        oriented;

internalField   nonuniform List<scalar> 
10325
(
0.0084507
1.14953e-16
0.0084507
-9.81501e-16
0.0084507
6.77518e-16
0.0084507
1.48019e-13
0.0084507
-7.53552e-13
0.0084507
-1.19792e-11
0.0084507
4.04942e-12
0.0084507
-1.01876e-10
0.00845063
3.09471e-10
0.00845041
-2.50437e-09
0.00844591
1.23393e-08
0.00841884
7.03252e-08
0.0081266
1.73344e-06
0.00716845
2.3614e-05
0.0062905
8.23913e-05
0.00695825
0.000937006
0.0069073
0.000496888
0.00630798
0.000596741
0.00561302
0.000633074
0.00494755
0.000707194
0.0041457
0.000806057
0.00324601
0.000902704
0.0022558
0.000998806
0.00118622
0.00107578
0.00118772
0.0084507
-1.84856e-17
0.0084507
4.07557e-15
0.0084507
1.37635e-14
0.0084507
1.88464e-13
0.0084507
1.78468e-12
0.0084507
-6.27332e-12
0.0084507
1.535e-10
0.0084507
-4.90836e-10
0.00845063
3.00512e-09
0.00845044
-1.43202e-08
0.00844584
1.12834e-08
0.00842032
1.87852e-07
0.00814789
-1.86022e-05
0.00720299
5.43229e-05
0.00630106
0.000180936
0.00688348
0.00190347
0.00686679
0.00101699
0.00626247
0.00120041
0.00553808
0.00129493
0.00487804
0.00141434
0.00408839
0.00159961
0.00316072
0.00183162
0.00215951
0.00201167
0.00110675
0.00213524
0.00229722
0.0084507
7.67615e-17
0.0084507
1.46394e-15
0.0084507
7.17433e-15
0.0084507
1.11166e-13
0.0084507
2.24899e-13
0.0084507
6.22544e-13
0.0084507
1.20922e-10
0.0084507
-7.61499e-11
0.00845065
2.73135e-09
0.00845025
4.40405e-09
0.0084465
3.21493e-08
0.00841568
1.12743e-06
0.00815716
-1.90009e-05
0.00722166
8.27959e-05
0.00630217
0.000282752
0.00669985
0.00293179
0.00678275
0.00156129
0.00617625
0.00181416
0.00544211
0.00197394
0.00475881
0.00214958
0.00395695
0.0024099
0.00307389
0.0027248
0.0021478
0.00295381
0.00111124
0.0031866
0.00341931
0.0084507
3.69198e-16
0.0084507
-1.31432e-16
0.0084507
4.53083e-15
0.0084507
-4.28707e-14
0.0084507
-3.55777e-13
0.0084507
1.16139e-12
0.0084507
1.84786e-11
0.0084507
1.173e-10
0.00845066
1.51794e-09
0.00845031
1.1346e-08
0.00844718
9.5429e-08
0.00842038
1.22739e-06
0.00818103
3.70187e-06
0.00726408
0.000101891
0.00631695
0.000390029
0.00648884
0.0039712
0.00666906
0.00221206
0.00606248
0.00243274
0.00536327
0.00262853
0.00469606
0.00286514
0.00394836
0.00317047
0.00312545
0.00355724
0.00220677
0.0038895
0.00114458
0.00426133
0.0045729
0.0084507
3.33961e-16
0.0084507
-3.25803e-17
0.0084507
4.64483e-15
0.0084507
-5.22478e-14
0.0084507
3.69722e-13
0.0084507
3.72304e-13
0.0084507
3.04868e-11
0.0084507
5.60365e-11
0.00845067
2.15476e-09
0.00845037
5.60768e-09
0.00844771
1.48122e-07
0.00842507
8.72641e-07
0.00823173
9.54234e-06
0.00737102
0.000113637
0.00641676
0.000451336
0.00633859
0.00493414
0.00659809
0.00309226
0.00598224
0.00306602
0.00528307
0.00329786
0.00465494
0.00354961
0.00398246
0.00386002
0.00316326
0.00438529
0.00223955
0.0048358
0.00115698
0.00536603
0.00574653
0.0084507
-8.79559e-17
0.0084507
3.41334e-16
0.0084507
1.47069e-15
0.0084507
-1.37918e-14
0.0084507
4.17069e-13
0.0084507
8.80394e-14
0.0084507
3.08861e-11
0.0084507
3.28179e-11
0.00845068
2.34926e-09
0.00845045
-2.60858e-10
0.00844847
1.76208e-07
0.00843118
-7.26301e-08
0.00828875
1.09597e-05
0.00752278
0.000100337
0.00664024
0.00034676
0.00644822
0.00543363
0.00697432
0.00428583
0.00624271
0.00381809
0.00543036
0.00408145
0.00475015
0.00428819
0.00407401
0.00455047
0.00321371
0.00525675
0.00226178
0.00580729
0.00120372
0.00643956
0.00697488
0.0084507
-1.87675e-16
0.0084507
3.76218e-16
0.0084507
-3.95024e-15
0.0084507
-2.76342e-14
0.0084507
2.98941e-13
0.0084507
-6.86638e-13
0.0084507
3.67116e-11
0.0084507
7.66185e-11
0.00845068
2.34991e-09
0.0084505
5.67848e-09
0.00844902
1.62679e-07
0.00843487
1.75242e-07
0.00832752
9.55709e-06
0.00764463
8.25526e-05
0.00675845
0.00019935
0.00668253
0.0050178
0.00746163
0.00588933
0.00661524
0.00465018
0.00575405
0.00489623
0.00499693
0.00511272
0.00429643
0.00528984
0.0034341
0.00612361
0.00253041
0.00675913
0.00144699
0.00755816
0.00844784
0.0084507
-3.45318e-17
0.0084507
6.44612e-16
0.0084507
1.46058e-15
0.0084507
4.12323e-14
0.0084507
-5.22361e-13
0.0084507
-3.20064e-13
0.0084507
2.58669e-11
0.0084507
6.85574e-11
0.00845069
1.47134e-09
0.00845055
7.81616e-09
0.00844972
9.90985e-08
0.00843853
7.24921e-07
0.00836205
7.06279e-06
0.00777487
6.36192e-05
0.00680841
0.000136541
0.00702415
0.00396675
0.00823089
0.0071766
0.00722025
0.00565753
0.00625938
0.0057964
0.00547708
0.00595425
0.00473264
0.00606169
0.00374601
0.00711864
0.00275039
0.00776285
0.00154678
0.00878138
0.0100919
0.0084507
1.12161e-16
0.0084507
7.0175e-17
0.0084507
7.1785e-15
0.0084507
3.11241e-14
0.0084507
-8.28964e-13
0.0084507
1.9798e-12
0.0084507
1.12335e-11
0.0084507
8.27754e-11
0.0084507
8.10968e-10
0.00845057
7.04437e-09
0.00845002
6.66106e-08
0.00844097
6.06397e-07
0.00838321
5.56873e-06
0.00787118
5.37461e-05
0.00679749
0.000210791
0.00704281
0.00281243
0.00889402
0.00795949
0.00795902
0.00658985
0.0070564
0.00664409
0.00619736
0.00689314
0.0053343
0.00695738
0.00446845
0.00803186
0.00343737
0.00885427
0.00232754
0.00994775
0.0125537
0.0084507
7.41052e-17
0.0084507
1.17961e-16
0.0084507
4.83248e-15
0.0084507
2.30179e-14
0.0084507
-6.64214e-13
0.0084507
2.03957e-12
0.0084507
-3.34569e-12
0.0084507
9.80433e-11
0.0084507
3.2668e-10
0.0084506
6.79285e-09
0.00845024
4.07269e-08
0.00844322
5.22862e-07
0.00840228
4.05681e-06
0.00798703
4.45921e-05
0.00694815
0.000264896
0.00685039
0.0020036
0.00898081
0.00827244
0.00856326
0.00700175
0.00789343
0.00728063
0.00704688
0.00777737
0.0060808
0.00794116
0.00517504
0.00896382
0.00411721
0.00992857
0.00255249
0.0115366
0.0156109
0.0084507
7.24789e-17
0.0084507
-4.83012e-17
0.0084507
5.0546e-15
0.0084507
1.81212e-14
0.0084507
3.31308e-13
0.0084507
2.19359e-12
0.0084507
-9.61418e-12
0.0084507
1.57058e-10
0.0084507
-3.193e-10
0.00845062
7.37923e-09
0.00845041
-3.03745e-09
0.00844506
4.37526e-07
0.0084165
2.79706e-06
0.00810684
1.74793e-05
0.0071577
0.000271921
0.00674727
0.00149992
0.00874324
0.00826638
0.00875639
0.00726083
0.0084908
0.00760316
0.00778157
0.00849398
0.00702392
0.00875582
0.00626314
0.0098182
0.00571354
0.0106598
0.0054517
0.0121244
0.0132095
0.0085666
0.0084507
2.29038e-17
0.0084507
3.78658e-17
0.0084507
2.08606e-15
0.0084507
1.08888e-14
0.0084507
1.40368e-13
0.0084507
1.26848e-12
0.0084507
2.62288e-12
0.0084507
9.94586e-11
0.0084507
-2.17822e-10
0.00845066
6.76428e-09
0.00845029
-5.0435e-08
0.00844705
4.26273e-07
0.00842299
-1.23746e-06
0.00820854
1.02374e-05
0.00735877
0.000239349
0.0067491
0.00115885
0.00824527
0.00806157
0.00878107
0.00764525
0.00875039
0.00774221
0.00838125
0.00878142
0.00783301
0.00931742
0.00745058
0.0102425
0.00747848
0.0106524
0.00782145
0.011587
0.0118024
0.0101394
0.0084507
-2.62919e-18
0.0084507
4.16334e-17
0.0084507
-1.21485e-16
0.0084507
6.57658e-15
0.0084507
4.21034e-15
0.0084507
4.54197e-13
0.0084507
5.32404e-12
0.0084507
3.17176e-11
0.0084507
-1.42839e-11
0.00845068
3.81893e-09
0.00845046
-3.58382e-08
0.00844871
3.33683e-07
0.00843262
-2.20689e-06
0.00830048
1.83489e-05
0.00759559
0.000167903
0.00686503
0.000848992
0.00775539
0.00739352
0.00868092
0.00853056
0.00855117
0.00790384
0.00864315
0.00867868
0.00852777
0.00939981
0.00842998
0.0103291
0.0086126
0.0106677
0.00911458
0.0110144
0.010972
0.0105881
0.0084507
-3.63208e-18
0.0084507
6.23958e-17
0.0084507
3.55862e-16
0.0084507
2.73186e-15
0.0084507
9.46208e-15
0.0084507
4.28657e-13
0.0084507
2.04405e-13
0.0084507
3.51605e-11
0.0084507
8.52576e-11
0.00845069
1.96129e-09
0.00845061
1.03545e-08
0.00844964
1.73139e-07
0.0084375
9.62241e-07
0.00836652
1.0296e-05
0.00783356
0.000102612
0.00708506
0.000489068
0.00788664
0.00557311
0.00924007
0.0098515
0.00882699
0.0083475
0.00877533
0.00869168
0.00889302
0.00927899
0.00914689
0.0101027
0.00952918
0.0104601
0.00996798
0.0106832
0.0104378
0.010975
0.0084507
-5.77338e-18
0.0084507
5.55654e-17
0.0084507
6.11056e-16
0.0084507
1.89443e-15
0.0084507
6.01819e-14
0.0084507
2.24098e-13
0.0084507
1.25643e-12
0.0084507
1.05624e-11
0.0084507
1.08777e-10
0.0084507
1.08348e-09
0.0084506
6.68121e-09
0.00845023
9.01978e-08
0.008443
7.05127e-07
0.0084005
6.41155e-06
0.00798456
7.01053e-05
0.00704733
0.000408631
0.00776324
0.00372399
0.010048
0.0105156
0.00945053
0.00903272
0.00919814
0.00895721
0.00921232
0.00926902
0.00950705
0.00985982
0.00998257
0.010151
0.010443
0.0103352
0.00988858
0.0113247
0.0084507
6.72205e-18
0.0084507
8.08544e-17
0.0084507
9.21572e-18
0.0084507
4.72937e-15
0.0084507
2.30973e-14
0.0084507
2.41648e-13
0.0084507
5.26239e-12
0.0084507
-5.65832e-12
0.0084507
1.65194e-10
0.0084507
1.0828e-10
0.00845063
7.8291e-09
0.00845044
3.40572e-08
0.00844583
5.57819e-07
0.00842172
3.43085e-06
0.00814706
4.35544e-05
0.00727104
0.000355405
0.0074565
0.00235246
0.010295
0.00962835
0.0102641
0.00973569
0.00986997
0.00951416
0.00965496
0.00949523
0.00977327
0.00974908
0.0101842
0.00981522
0.0106946
0.00992636
0.00945793
0.0113815
0.0084507
4.01155e-18
0.0084507
8.21283e-18
0.0084507
-8.64109e-17
0.0084507
2.11278e-15
0.0084507
4.33532e-15
0.0084507
1.35813e-13
0.0084507
4.00608e-12
0.0084507
-1.09289e-12
0.0084507
1.17094e-10
0.0084507
1.59897e-10
0.00845067
5.70419e-09
0.00845043
2.17982e-08
0.0084483
3.5546e-07
0.00843
2.2191e-06
0.00828852
2.43425e-05
0.00759708
0.000234364
0.00737599
0.00136568
0.00935846
0.00814114
0.0105155
0.0103083
0.010298
0.0098764
0.0100679
0.00967421
0.010058
0.00972123
0.0103123
0.00963029
0.0107668
0.00958118
0.00915158
0.0112798
0.0084507
1.6263e-18
0.0084507
2.81893e-17
0.0084507
2.12449e-16
0.0084507
3.00243e-16
0.0084507
1.38106e-14
0.0084507
4.75252e-15
0.0084507
8.78778e-13
0.0084507
5.24012e-12
0.0084507
1.23635e-11
0.0084507
2.94897e-10
0.0084507
1.34872e-09
0.00845051
1.9605e-08
0.00845014
1.29561e-07
0.00843847
1.18017e-06
0.00838025
1.75226e-05
0.00801156
-5.60583e-05
0.00738204
0.000916256
0.00864237
0.00572991
0.0108914
0.0109066
0.0107259
0.0100883
0.0105928
0.00984698
0.0105505
0.00977536
0.0106686
0.00959672
0.0109441
0.00940969
0.00895469
0.0113006
0.0084507
-1.35525e-19
0.0084507
3.79471e-19
0.0084507
4.67562e-17
0.0084507
3.52176e-16
0.0084507
4.64258e-15
0.0084507
-1.77529e-14
0.0084507
1.96155e-13
0.0084507
2.19257e-12
0.0084507
1.42846e-11
0.0084507
8.63827e-11
0.0084507
7.41965e-10
0.00845063
5.14518e-09
0.00845007
4.15658e-08
0.00844504
5.03545e-07
0.00840531
1.12352e-05
0.00810774
-0.000109049
0.00737356
0.000580745
0.00832216
0.00349764
0.011319
0.0102417
0.011407
0.0105633
0.0112178
0.0102727
0.0110358
0.00997873
0.0110016
0.00967135
0.0111204
0.00936073
0.00885184
0.0113477
0.0084507
3.25261e-19
0.0084507
1.84856e-17
0.0084507
1.54797e-16
0.0084507
1.87865e-16
0.0084507
5.04176e-15
0.0084507
2.6824e-14
0.0084507
2.39044e-13
0.0084507
7.62573e-12
0.0084507
1.04801e-12
0.0084507
2.20986e-10
0.0084507
6.11982e-10
0.00845057
1.31556e-08
0.00845064
9.40537e-08
0.00845085
2.92e-07
0.00842346
3.52526e-06
0.00820217
3.9335e-05
0.00777738
-0.000156168
0.00812584
0.00202714
0.0106789
0.00848812
0.0119027
0.0111886
0.0117074
0.0107392
0.0115117
0.0101488
0.0114114
0.00978101
0.0114194
0.00940942
0.00887092
0.0115027
0.0084507
3.25261e-19
0.0084507
8.37546e-18
0.0084507
9.31059e-17
0.0084507
1.69488e-16
0.0084507
7.98921e-16
0.0084507
1.44514e-14
0.0084507
-1.42196e-14
0.0084507
5.77099e-12
0.0084507
-1.14578e-12
0.0084507
1.21801e-10
0.0084507
1.25743e-10
0.00845069
5.69351e-09
0.00845058
4.81922e-08
0.00844966
9.48413e-08
0.00844188
1.07325e-06
0.00838286
2.16335e-05
0.00799888
-0.000304613
0.00747282
0.00123111
0.0091282
0.00565147
0.011949
0.0112552
0.0118675
0.0108187
0.0118966
0.010305
0.0117974
0.00992513
0.0117527
0.00949592
0.00895433
0.0117548
0.0084507
7.58942e-19
0.0084507
-6.23416e-19
0.0084507
3.36374e-17
0.0084507
7.94991e-17
0.0084507
5.28223e-16
0.0084507
1.20349e-14
0.0084507
7.47557e-14
0.0084507
6.38386e-13
0.0084507
6.05636e-12
0.0084507
1.88796e-11
0.0084507
3.09388e-10
0.0084507
1.55314e-09
0.00845055
1.97817e-08
0.00845067
1.60607e-07
0.00845132
4.03709e-07
0.0084049
6.91501e-06
0.00798212
6.6594e-05
0.00775314
-0.000172978
0.00900567
0.00342162
0.0122044
0.00977301
0.0127789
0.0113626
0.0125483
0.0108164
0.012342
0.0101849
0.012205
0.00968771
0.00912904
0.0121
0.0084507
4.87891e-19
0.0084507
-1.97867e-18
0.0084507
1.68593e-17
0.0084507
2.69153e-17
0.0084507
6.56484e-16
0.0084507
5.02788e-15
0.0084507
3.54956e-14
0.0084507
2.98708e-13
0.0084507
2.7927e-12
0.0084507
9.13301e-12
0.0084507
1.06636e-10
0.0084507
4.7968e-10
0.00845068
6.85537e-09
0.00845052
8.40017e-08
0.00844906
8.68268e-08
0.00843761
2.29108e-06
0.0083445
4.11017e-05
0.00792821
-0.000459866
0.00796139
0.00186515
0.0103805
0.00715657
0.0127524
0.0115297
0.012674
0.0110156
0.0126629
0.0103171
0.0125516
0.00988056
0.00931901
0.0124409
0.0084507
-2.71051e-19
0.0084507
-2.98156e-19
0.0084507
1.51788e-18
0.0084507
2.61293e-17
0.0084507
7.2506e-17
0.0084507
1.72437e-15
0.0084507
6.80911e-15
0.0084507
7.39399e-14
0.0084507
8.40682e-13
0.0084507
3.71016e-12
0.0084507
3.45962e-11
0.0084507
3.09872e-10
0.0084507
2.19885e-09
0.00845054
3.14213e-08
0.00845061
2.42276e-07
0.00845032
7.68661e-07
0.0084089
1.0685e-05
0.00787593
8.0696e-05
0.00782653
-9.06796e-05
0.00955662
0.00442544
0.0129396
0.0104152
0.0133075
0.011335
0.0131753
0.0107754
0.0129951
0.0101364
0.00954761
0.0128302
0.0084507
-8.13152e-20
0.0084507
-5.42101e-20
0.0084507
-8.40257e-19
0.0084507
1.33086e-17
0.0084507
4.49402e-17
0.0084507
5.62186e-16
0.0084507
3.45679e-15
0.0084507
3.50884e-14
0.0084507
2.91636e-13
0.0084507
9.3339e-13
0.0084507
1.51798e-11
0.0084507
1.58257e-10
0.0084507
7.26733e-10
0.00845068
1.20073e-08
0.00845047
1.13036e-07
0.00844862
1.77582e-07
0.00843406
3.14565e-06
0.00832003
4.62153e-05
0.0079565
-0.000546155
0.00842942
0.0023726
0.0114878
0.00788767
0.0135108
0.0114861
0.013393
0.0111377
0.0133457
0.0103009
0.00979863
0.0131723
0.0084507
-2.43945e-19
0.0084507
8.13152e-20
0.0084507
-5.42101e-19
0.0084507
4.77049e-18
0.0084507
2.57227e-17
0.0084507
2.44379e-16
0.0084507
1.41182e-15
0.0084507
1.64115e-14
0.0084507
8.81516e-14
0.0084507
3.06866e-13
0.0084507
6.61018e-12
0.0084507
4.13813e-11
0.0084507
6.01679e-10
0.0084507
3.32636e-09
0.00845061
2.53275e-08
0.00845048
1.92027e-07
0.00844575
1.15281e-06
0.00841458
1.25211e-05
0.0078048
9.68567e-05
0.00790058
7.22998e-05
0.00993305
0.00500379
0.0134942
0.0104507
0.0138828
0.011328
0.0137318
0.0107971
0.0100884
0.0135054
0.0084507
3.25261e-19
0.0084507
1.0571e-18
0.0084507
-8.67362e-19
0.0084507
8.53809e-18
0.0084507
-1.32815e-18
0.0084507
1.05818e-16
0.0084507
2.3557e-16
0.0084507
7.2908e-15
0.0084507
1.9064e-14
0.0084507
2.73003e-13
0.0084507
2.17855e-12
0.0084507
5.21035e-12
0.0084507
2.52005e-10
0.0084507
5.30602e-10
0.00845066
1.46138e-08
0.0084504
4.50226e-08
0.00844839
2.79382e-07
0.00843315
2.01949e-06
0.00831263
4.93215e-05
0.0080687
-0.000560751
0.00877298
0.00271851
0.0120318
0.00805151
0.0140434
0.011401
0.0139132
0.0111435
0.0102807
0.0138317
0.0084507
7.04731e-19
0.0084507
1.35525e-18
0.0084507
-2.43945e-19
0.0084507
7.88757e-18
0.0084507
-4.47233e-18
0.0084507
3.42608e-17
0.0084507
1.85561e-16
0.0084507
2.94645e-15
0.0084507
2.32858e-14
0.0084507
1.80681e-13
0.0084507
6.2345e-13
0.0084507
3.04735e-12
0.0084507
3.16481e-11
0.0084507
2.84868e-10
0.00845071
2.80783e-09
0.00845043
4.03869e-08
0.00844991
1.82059e-07
0.00843578
2.94375e-06
0.00848074
1.61882e-05
0.00786408
9.0335e-05
0.00788167
0.00040998
0.0100222
0.00496217
0.0137857
0.0100543
0.0143073
0.0112125
0.0107384
0.0141306
0.0084507
-4.06576e-19
0.0084507
-4.60786e-19
0.0084507
-1.02999e-18
0.0084507
-6.77626e-19
0.0084507
-7.31836e-19
0.0084507
-7.31836e-19
0.0084507
1.17988e-16
0.0084507
1.02912e-15
0.0084507
1.1498e-14
0.0084507
6.6897e-14
0.0084507
1.90226e-13
0.0084507
3.13735e-12
0.0084507
-1.25084e-11
0.0084507
1.37032e-10
0.0084507
8.33484e-10
0.00845067
1.55853e-08
0.00845041
2.61091e-08
0.00844901
1.10331e-06
0.00843518
4.50131e-06
0.00834258
3.37105e-05
0.00815073
-0.000348922
0.0089866
0.00256657
0.0121791
0.0076058
0.0143623
0.0111237
0.0109762
0.0142303
0.0084507
-3.25261e-19
0.0084507
-2.43945e-19
0.0084507
-1.40946e-18
0.0084507
-1.95156e-18
0.0084507
-2.87314e-18
0.0084507
0
0.0084507
3.99529e-17
0.0084507
9.02056e-17
0.0084507
3.05225e-15
0.0084507
1.00638e-15
0.0084507
8.05937e-14
0.0084507
8.27267e-13
0.0084507
3.08252e-12
0.0084507
3.68353e-11
0.0084507
6.17937e-10
0.00845071
4.19027e-09
0.00845048
4.65659e-08
0.00845044
2.98342e-07
0.00843705
3.0012e-06
0.00844873
1.87823e-05
0.00802961
8.77594e-05
0.00775486
0.000757215
0.00985102
0.00434698
0.0137995
0.00932065
0.0109863
0.0145057
0.0084507
8.13152e-20
0.0084507
-2.1684e-19
0.0084507
-2.98156e-19
0.0084507
-4.87891e-19
0.0084507
-1.02999e-18
0.0084507
-3.52366e-19
0.0084507
1.02457e-17
0.0084507
8.67633e-17
0.0084507
4.85479e-16
0.0084507
-2.57658e-15
0.0084507
7.02008e-14
0.0084507
3.18928e-13
0.0084507
1.44986e-12
0.0084507
3.10376e-11
0.0084507
1.25335e-10
0.0084507
1.49649e-09
0.0084507
1.44808e-08
0.00845051
1.02642e-07
0.00845048
9.9109e-07
0.00843856
7.60221e-06
0.00838277
2.42694e-05
0.00819992
8.77445e-06
0.00893929
0.00210094
0.0119058
0.00675202
0.010657
0.0145092
0.0084507
-2.43945e-19
0.0084507
-6.77626e-19
0.0084507
-3.25261e-19
0.0084507
-5.42101e-20
0.0084507
-1.6263e-19
0.0084507
-1.24683e-18
0.0084507
3.00866e-18
0.0084507
8.63838e-17
0.0084507
8.31041e-17
0.0084507
4.5688e-15
0.0084507
1.93607e-14
0.0084507
2.20623e-13
0.0084507
1.94293e-12
0.0084507
1.52271e-11
0.0084507
6.16777e-11
0.00845071
4.44009e-10
0.00845069
4.37287e-09
0.00845075
2.76834e-08
0.00845034
2.46544e-07
0.0084537
1.77056e-06
0.00841504
1.35554e-05
0.00820902
9.25283e-05
0.00782401
0.000829434
0.00972338
0.00370926
0.0084307
0.0137619
0.0084507
-5.69206e-19
0.0084507
-5.42101e-19
0.0084507
-1.11131e-18
0.0084507
-1.49078e-18
0.0084507
-1.84314e-18
0.0084507
-2.57498e-18
0.0084507
-2.71051e-19
0.0084507
1.84043e-17
0.0084507
2.28794e-16
0.0084507
1.43548e-15
0.0084507
6.70457e-15
0.0084507
5.13534e-14
0.0084507
5.54804e-13
0.0084507
3.7815e-12
0.0084507
3.56276e-11
0.0084507
8.74412e-11
0.0084507
1.74067e-09
0.0084507
5.95157e-09
0.00845053
9.17709e-08
0.00845045
4.32325e-07
0.00844125
4.75121e-06
0.00841279
2.44326e-05
0.00830591
0.000104622
0.0087639
0.00183031
0.00581923
0.0113054
0.0084507
-4.06576e-19
0.0084507
3.52366e-19
0.0084507
-1.35525e-19
0.0084507
-1.6263e-19
0.0084507
-2.71051e-19
0.0084507
-4.33681e-19
0.0084507
5.42101e-19
0.0084507
5.52943e-18
0.0084507
3.60226e-17
0.0084507
1.484e-16
0.0084507
2.21088e-15
0.0084507
7.25071e-15
0.0084507
1.30716e-13
0.0084507
7.96758e-13
0.0084507
4.96566e-12
0.0084507
4.64775e-11
0.0084507
3.12434e-10
0.0084507
2.67107e-09
0.00845074
1.90042e-08
0.00845027
1.69362e-07
0.00845202
1.13691e-06
0.00842678
9.88736e-06
0.00833929
7.42328e-05
0.00797252
0.000762255
0.00293659
0.0096655
0.0084507
-1.0842e-19
0.0084507
4.06576e-19
0.0084507
7.86047e-19
0.0084507
4.33681e-19
0.0084507
5.14996e-19
0.0084507
6.23416e-19
0.0084507
2.1413e-18
0.0084507
4.06576e-18
0.0084507
1.66425e-17
0.0084507
1.33005e-16
0.0084507
9.01324e-16
0.0084507
4.74412e-15
0.0084507
2.62028e-14
0.0084507
3.67032e-13
0.0084507
8.71595e-13
0.0084507
1.98047e-11
0.0084507
5.24209e-11
0.0084507
1.11686e-09
0.00845069
4.01702e-09
0.00845059
4.86347e-08
0.00844992
1.36638e-07
0.00844386
3.93032e-06
0.00845749
-2.71298e-05
0.00845329
0.000157348
0.0011458
0.0088123
0.0084507
4.60786e-19
0.0084507
2.43945e-19
0.0084507
-8.13152e-20
0.0084507
5.42101e-19
0.0084507
8.67362e-19
0.0084507
1.32815e-18
0.0084507
2.1684e-18
0.0084507
1.89735e-18
0.0084507
9.1073e-18
0.0084507
4.10371e-17
0.0084507
3.41659e-16
0.0084507
8.60938e-16
0.0084507
-4.32285e-15
0.0084507
1.01947e-13
0.0084507
4.54527e-14
0.0084507
6.21166e-12
0.0084507
3.92038e-11
0.0084507
4.00291e-10
0.0084507
2.81571e-09
0.00845069
8.33381e-09
0.0084505
5.96244e-08
0.00845047
1.81114e-06
0.00844181
-3.73939e-05
0.00842065
6.37962e-05
0.00017772
0.00835913
0.0084507
1.0842e-19
0.0084507
3.25261e-19
0.0084507
1.89735e-19
0.0084507
1.00289e-18
0.0084507
6.50521e-19
0.0084507
1.40946e-18
0.0084507
1.78893e-18
0.0084507
1.5992e-18
0.0084507
3.2255e-18
0.0084507
6.88468e-18
0.0084507
1.55854e-17
0.0084507
4.50486e-16
0.0084507
1.09526e-15
0.0084507
2.95122e-14
0.0084507
-3.45088e-13
0.0084507
1.2945e-12
0.0084507
6.59787e-12
0.0084507
2.99237e-11
0.00845071
3.9033e-10
0.00845074
6.66783e-10
0.00845102
-6.75673e-09
0.0084556
-2.72526e-07
0.00841693
-1.07632e-06
0.00841007
6.38372e-06
9.26277e-05
0.00836631
0.0084507
-2.43945e-19
0.0084507
2.71051e-20
0.0084507
2.1684e-19
0.0084507
5.69206e-19
0.0084507
4.06576e-19
0.0084507
4.33681e-19
0.0084507
5.42101e-19
0.0084507
8.67362e-19
0.0084507
1.30104e-18
0.0084507
1.81604e-18
0.0084507
1.46638e-17
0.0084507
9.15338e-17
0.0084507
4.82578e-16
0.0084507
3.84472e-15
0.0084507
2.20318e-15
0.0084507
3.44981e-13
0.0084507
1.83714e-12
0.0084507
-9.26293e-12
0.0084507
1.45078e-10
0.0084507
-7.41584e-10
0.00845069
-1.14363e-08
0.0084504
1.50802e-07
0.00844944
-1.22908e-06
0.00844465
-1.84196e-06
1.34055e-05
0.00846203
0.0084507
4.06576e-19
0.0084507
6.50521e-19
0.0084507
8.13152e-19
0.0084507
2.71051e-19
0.0084507
3.79471e-19
0.0084507
-7.31836e-19
0.0084507
-1.35525e-18
0.0084507
-1.5992e-18
0.0084507
-1.54499e-18
0.0084507
-1.78893e-18
0.0084507
-7.31836e-19
0.0084507
2.71051e-17
0.0084507
1.09667e-16
0.0084507
1.95991e-15
0.0084507
-1.75424e-14
0.0084507
5.02018e-14
0.0084507
5.09131e-13
0.0084507
-4.22815e-12
0.0084507
1.14921e-11
0.0084507
1.19294e-12
0.0084507
6.13082e-10
0.00845092
-2.45783e-10
0.00844958
-9.67109e-08
0.00844727
6.87893e-07
1.1373e-06
0.00843899
0.0084507
1.6263e-19
0.0084507
1.0842e-19
0.0084507
3.25261e-19
0.0084507
-5.69206e-19
0.0084507
-8.13152e-20
0.0084507
-8.40257e-19
0.0084507
-1.27394e-18
0.0084507
-1.21973e-18
0.0084507
-7.58942e-19
0.0084507
-8.13152e-20
0.0084507
2.1684e-19
0.0084507
9.56808e-18
0.0084507
-3.80013e-17
0.0084507
1.02365e-15
0.0084507
-3.36048e-16
0.0084507
-1.7213e-14
0.0084507
2.3962e-13
0.0084507
-1.19436e-12
0.0084507
-5.31877e-12
0.0084507
-2.03566e-11
0.0084507
-2.46401e-10
0.00845069
7.23905e-10
0.00845067
-2.39132e-08
0.00845051
1.0421e-07
7.5051e-07
0.00845167
0.0084507
-2.43945e-19
0.0084507
-7.86047e-19
0.0084507
-3.52366e-19
0.0084507
2.71051e-20
0.0084507
3.79471e-19
0.0084507
3.79471e-19
0.0084507
6.50521e-19
0.0084507
5.69206e-19
0.0084507
1.0571e-18
0.0084507
1.30104e-18
0.0084507
1.38236e-18
0.0084507
1.97867e-18
0.0084507
9.78492e-18
0.0084507
7.72223e-17
0.0084507
9.78221e-17
0.0084507
-9.65319e-16
0.0084507
1.15923e-14
0.0084507
-2.1844e-13
0.0084507
-2.73512e-13
0.0084507
6.22187e-13
0.0084507
-4.31888e-11
0.0084507
1.72645e-10
0.00845067
9.6305e-10
0.00845059
4.91209e-08
1.62843e-08
0.0084504
0.0084507
4.60786e-19
0.0084507
4.06576e-19
0.0084507
6.50521e-19
0.0084507
8.67362e-19
0.0084507
8.94467e-19
0.0084507
5.69206e-19
0.0084507
9.48677e-19
0.0084507
9.75782e-19
0.0084507
1.02999e-18
0.0084507
9.48677e-19
0.0084507
1.0571e-18
0.0084507
9.48677e-19
0.0084507
-2.1684e-19
0.0084507
1.46638e-17
0.0084507
3.48571e-17
0.0084507
-6.45588e-16
0.0084507
2.04258e-15
0.0084507
-9.55121e-14
0.0084507
-4.65011e-14
0.0084507
-1.64545e-12
0.0084507
-2.69371e-11
0.0084507
-9.92124e-11
0.0084507
-1.48662e-10
0.00845069
4.05818e-09
7.68649e-08
0.00845049
0.0084507
1.0842e-19
0.0084507
-1.0842e-19
0.0084507
-5.14996e-19
0.0084507
-1.32815e-18
0.0084507
-9.75782e-19
0.0084507
-9.21572e-19
0.0084507
-4.33681e-19
0.0084507
-1.89735e-19
0.0084507
-2.71051e-19
0.0084507
-1.89735e-19
0.0084507
-2.1684e-19
0.0084507
-7.04731e-19
0.0084507
-1.00289e-18
0.0084507
3.25261e-18
0.0084507
5.49691e-17
0.0084507
6.70579e-17
0.0084507
1.03755e-15
0.0084507
-7.56865e-15
0.0084507
2.69364e-14
0.0084507
8.00782e-13
0.0084507
-3.98344e-12
0.0084507
2.50094e-11
0.0084507
1.98171e-10
0.0084507
6.25122e-10
1.66501e-08
0.00845067
0.0084507
-4.06576e-19
0.0084507
-9.75782e-19
0.0084507
-8.40257e-19
0.0084507
-1.32815e-18
0.0084507
-1.43657e-18
0.0084507
-1.40946e-18
0.0084507
-1.30104e-18
0.0084507
-2.22261e-18
0.0084507
-2.52077e-18
0.0084507
-2.41235e-18
0.0084507
-2.73761e-18
0.0084507
-3.44234e-18
0.0084507
-2.54788e-18
0.0084507
-2.46656e-18
0.0084507
-5.44812e-18
0.0084507
-6.19622e-17
0.0084507
-4.97866e-16
0.0084507
-3.88036e-15
0.0084507
-7.82881e-15
0.0084507
-5.82947e-14
0.0084507
-1.21993e-12
0.0084507
2.86699e-12
0.0084507
5.27751e-11
0.0084507
2.44587e-10
4.98749e-09
0.0084507
0.0084507
-1.35525e-19
0.0084507
-2.71051e-19
0.0084507
-1.6263e-19
0.0084507
-2.71051e-20
0.0084507
1.0842e-19
0.0084507
-3.79471e-19
0.0084507
-1.89735e-19
0.0084507
-1.02999e-18
0.0084507
-1.21973e-18
0.0084507
-2.00577e-18
0.0084507
-2.08709e-18
0.0084507
-1.84314e-18
0.0084507
-2.38524e-18
0.0084507
-1.46367e-18
0.0084507
-4.20128e-18
0.0084507
6.91179e-18
0.0084507
-3.84079e-17
0.0084507
1.30782e-16
0.0084507
2.2202e-15
0.0084507
6.8892e-14
0.0084507
-1.50602e-13
0.0084507
2.12659e-12
0.0084507
1.45765e-11
0.0084507
1.09997e-10
6.04618e-10
0.00845071
0.0084507
2.43945e-19
0.0084507
1.89735e-19
0.0084507
1.6263e-19
0.0084507
1.35525e-19
0.0084507
1.89735e-19
0.0084507
-5.96311e-19
0.0084507
-9.48677e-19
0.0084507
-1.24683e-18
0.0084507
-1.70762e-18
0.0084507
-2.05998e-18
0.0084507
-2.11419e-18
0.0084507
-2.24972e-18
0.0084507
-2.03288e-18
0.0084507
-1.78893e-18
0.0084507
-2.84603e-18
0.0084507
-6.4239e-18
0.0084507
-2.92735e-18
0.0084507
-2.60669e-16
0.0084507
1.00251e-15
0.0084507
-6.44238e-15
0.0084507
1.72215e-14
0.0084507
3.67776e-14
0.0084507
1.70123e-12
0.0084507
3.47863e-11
-1.22041e-10
0.0084507
0.0084507
1.89735e-19
0.0084507
5.96311e-19
0.0084507
5.42101e-19
0.0084507
5.42101e-19
0.0084507
7.31836e-19
0.0084507
2.71051e-19
0.0084507
-3.79471e-19
0.0084507
-5.69206e-19
0.0084507
-5.42101e-19
0.0084507
-8.67362e-19
0.0084507
-8.40257e-19
0.0084507
-1.89735e-18
0.0084507
-2.38524e-18
0.0084507
-2.62919e-18
0.0084507
-3.08998e-18
0.0084507
-2.98156e-18
0.0084507
-6.61363e-18
0.0084507
-2.85877e-16
0.0084507
1.57066e-15
0.0084507
-1.26871e-14
0.0084507
2.93441e-14
0.0084507
-9.61308e-13
0.0084507
-2.51938e-12
0.0084507
1.00596e-11
1.88691e-11
0.0084507
0.0084507
7.52316e-36
0.0084507
2.43945e-19
0.0084507
1.89735e-19
0.0084507
5.42101e-20
0.0084507
1.0842e-19
0.0084507
2.71051e-20
0.0084507
5.42101e-19
0.0084507
8.13152e-19
0.0084507
9.48677e-19
0.0084507
-8.13152e-20
0.0084507
-1.6263e-19
0.0084507
-1.5992e-18
0.0084507
-2.03288e-18
0.0084507
-2.54788e-18
0.0084507
-2.57498e-18
0.0084507
-3.11708e-18
0.0084507
-3.25261e-18
0.0084507
-2.83248e-17
0.0084507
5.47197e-16
0.0084507
-2.58051e-15
0.0084507
1.24883e-14
0.0084507
-2.75353e-13
0.0084507
-1.16153e-12
0.0084507
3.08943e-12
-6.53143e-12
0.0084507
0.0084507
-3.52366e-19
0.0084507
-7.58942e-19
0.0084507
-1.68051e-18
0.0084507
-2.03288e-18
0.0084507
-2.41235e-18
0.0084507
-2.62919e-18
0.0084507
-2.11419e-18
0.0084507
-2.24972e-18
0.0084507
-1.92446e-18
0.0084507
-1.6263e-18
0.0084507
-1.0842e-18
0.0084507
-6.77626e-19
0.0084507
-3.52366e-19
0.0084507
-3.25261e-19
0.0084507
-2.71051e-19
0.0084507
-8.94467e-19
0.0084507
2.79182e-18
0.0084507
2.15214e-17
0.0084507
2.13832e-16
0.0084507
-5.64598e-16
0.0084507
1.90627e-15
0.0084507
-2.67514e-14
0.0084507
-8.93869e-14
0.0084507
5.00888e-13
-5.08897e-13
0.0084507
0.0084507
0.0084507
0.0084507
0.0084507
0.0084507
0.0084507
0.0084507
0.0084507
0.0084507
0.0084507
0.0084507
0.0084507
0.0084507
0.0084507
0.0084507
0.0084507
0.0084507
0.0084507
0.0084507
0.0084507
0.0084507
0.0084507
0.0084507
0.0084507
0.0084507
0.00286178
0.00433715
-9.88546e-05
0.00296141
-0.00166166
0.00156904
-0.00195372
0.000293483
-0.00194982
1.11798e-07
-0.00194664
5.59067e-05
-0.00244269
0.00057981
-0.00299978
0.000489483
-0.00336854
0.000309679
-0.0035314
0.000165677
-0.00357254
4.54891e-05
-0.00356141
-7.8805e-06
-0.00354971
9.69867e-06
-0.00349742
1.47889e-05
-0.00349832
-2.96728e-06
-0.00358246
3.31067e-05
-0.00366075
5.23448e-05
-0.0037075
4.42127e-05
-0.00371265
6.46474e-06
-0.0037087
1.07295e-06
-0.00370416
-3.66156e-06
-0.00369412
-4.64486e-06
-0.00369189
-3.44118e-07
-0.00368208
-4.72977e-06
-0.00368183
-7.13261e-07
-0.00368434
-3.59926e-06
-0.00368976
5.48032e-06
-0.00369214
6.4525e-07
-0.00370035
5.82328e-06
-0.00370363
5.39116e-07
-0.00372599
3.95052e-06
-0.00372954
-6.28295e-06
-0.00374818
-4.78068e-06
-0.00377308
-9.90204e-06
-0.00374097
-3.74778e-05
-0.00367221
-6.27042e-05
-0.00357919
-8.63888e-05
-0.00351355
-7.44143e-05
-0.00331721
-0.000175068
-0.00312351
-0.000182265
-0.00293887
-0.0001852
-0.00268483
-0.00024178
-0.00240013
-0.00026985
-0.00207064
-0.000295507
-0.00173357
-0.000319271
-0.00145723
-0.000270398
-0.00113605
-0.000314179
-0.000732325
-0.000398951
-0.00035896
-0.000374114
5.63164e-05
-0.000413744
0.000469956
-0.000413568
0.000836743
-0.000362224
0.00119643
-0.000357744
0.00153988
-0.000339133
0.00187086
-0.000326015
0.00217615
-0.000302243
0.00246062
-0.000279769
0.00272694
-0.000260151
0.00297185
-0.000239503
0.00319663
-0.000219631
0.00340487
-0.000202492
0.00359716
-0.000186889
0.00377294
-0.000171364
0.0039349
-0.000157901
0.00408402
-0.000145529
0.00421952
-0.000132459
0.00434402
-0.000121437
0.00445881
-0.000111297
0.00456489
-0.000102538
0.0046626
-9.42605e-05
0.00475349
-8.72316e-05
0.00483791
-8.0548e-05
0.00491609
-7.43267e-05
0.00498784