/*--------------------------------*- C++ -*----------------------------------*\
| =========                 |                                                 |
| \\      /  F ield         | OpenFOAM: The Open Source CFD Toolbox           |
|  \\    /   O peration     | Version:  v2106                                 |
|   \\  /    A nd           | Website:  www.openfoam.com                      |
|    \\/     M anipulation  |                                                 |
\*---------------------------------------------------------------------------*/
FoamFile
{
    version     2.0;
    format      ascii;
    arch        "LSB;label=32;scalar=64";
    class       volScalarField;
    location    "14";
    object      psi;
}
// * * * * * * * * * * * * * * * * * * * * * * * * * * * * * * * * * * * * * //

dimensions      [0 -2 2 0 0 0 0];

internalField   nonuniform List<scalar> 
5250
(
1.40845
1.40845
1.40845
1.40845
1.40845
1.40845
1.40845
1.40845
1.40843
1.40823
1.40651
1.39058
1.2778
0.953546
0.513603
0.522925
0.554531
0.558611
0.54919
0.550988
0.550221
0.548505
0.548801
0.549754
0.551274
1.40845
1.40845
1.40845
1.40845
1.40845
1.40845
1.40845
1.40845
1.40843
1.40824
1.40654
1.39086
1.27964
0.960039
0.517041
0.522728
0.5558
0.560649
0.550818
0.552829
0.551879
0.549555
0.549847
0.550684
0.552123
1.40845
1.40845
1.40845
1.40845
1.40845
1.40845
1.40845
1.40845
1.40843
1.40823
1.40654
1.39137
1.28781
0.972654
0.524563
0.52152
0.559214
0.565489
0.555056
0.556712
0.555409
0.552596
0.55243
0.553065
0.554454
1.40845
1.40845
1.40845
1.40845
1.40845
1.40845
1.40845
1.40845
1.40843
1.40826
1.4068
1.39392
1.30132
0.993674
0.553654
0.519596
0.56969
0.574868
0.562937
0.562897
0.560852
0.557162
0.555765
0.555978
0.557056
1.40845
1.40845
1.40845
1.40845
1.40845
1.40845
1.40845
1.40845
1.40843
1.40829
1.40703
1.39602
1.31444
1.02338
0.602557
0.516889
0.586455
0.589483
0.575866
0.573013
0.568758
0.563317
0.560089
0.559892
0.560681
1.40845
1.40845
1.40845
1.40845
1.40845
1.40845
1.40845
1.40845
1.40844
1.40833
1.40736
1.399
1.33333
1.06793
0.693975
0.509131
0.612957
0.613536
0.596318
0.588191
0.579581
0.57077
0.565413
0.564209
0.56514
1.40845
1.40845
1.40845
1.40845
1.40845
1.40845
1.40845
1.40845
1.40844
1.40836
1.40762
1.40125
1.34801
1.10753
0.73084
0.484366
0.614993
0.627555
0.616445
0.608735
0.5971
0.58211
0.573724
0.570123
0.571075
1.40845
1.40845
1.40845
1.40845
1.40845
1.40845
1.40845
1.40845
1.40844
1.40839
1.40787
1.4032
1.36188
1.15213
0.774798
0.45585
0.585867
0.619945
0.614516
0.616881
0.612072
0.59734
0.583402
0.577219
0.58175
1.40845
1.40845
1.40845
1.40845
1.40845
1.40845
1.40845
1.40845
1.40845
1.4084
1.40799
1.40429
1.37136
1.18759
0.820588
0.45128
0.558976
0.600799
0.605761
0.615595
0.620774
0.615877
0.601782
0.587937
0.597628
1.40845
1.40845
1.40845
1.40845
1.40845
1.40845
1.40845
1.40845
1.40845
1.40841
1.40811
1.40537
1.38056
1.22713
0.870898
0.464258
0.557123
0.575777
0.587495
0.606127
0.619345
0.623758
0.617349
0.603709
0.637856
1.40845
1.40845
1.40845
1.40845
1.40845
1.40845
1.40845
1.40845
1.40845
1.40842
1.4082
1.4062
1.38783
1.26342
0.929006
0.492467
0.552789
0.571294
0.582312
0.595153
0.613313
0.634009
0.643026
0.647833
0.720476
1.40845
1.40845
1.40845
1.40845
1.40845
1.40845
1.40845
1.40845
1.40845
1.40843
1.40825
1.40666
1.3931
1.30097
0.995765
0.530816
0.543575
0.581398
0.59063
0.592766
0.60411
0.628491
0.654343
0.665943
0.780837
1.40845
1.40845
1.40845
1.40845
1.40845
1.40845
1.40845
1.40845
1.40845
1.40844
1.40834
1.40744
1.39986
1.33861
1.0765
0.648803
0.527467
0.606381
0.605054
0.599472
0.603409
0.619339
0.654117
0.674611
0.780546
1.40845
1.40845
1.40845
1.40845
1.40845
1.40845
1.40845
1.40845
1.40845
1.40844
1.40839
1.40793
1.40379
1.36363
1.15623
0.777004
0.492399
0.614847
0.621643
0.611691
0.60895
0.619451
0.648232
0.679988
0.770553
1.40845
1.40845
1.40845
1.40845
1.40845
1.40845
1.40845
1.40845
1.40845
1.40845
1.40841
1.40806
1.40517
1.37875
1.21813
0.86006
0.482579
0.613436
0.625991
0.62361
0.619094
0.624947
0.646947
0.677938
0.748453
1.40845
1.40845
1.40845
1.40845
1.40845
1.40845
1.40845
1.40845
1.40845
1.40845
1.40843
1.40822
1.40644
1.39012
1.27674
0.948642
0.499997
0.586253
0.634719
0.64085
0.634547
0.635293
0.648398
0.673389
0.722524
1.40845
1.40845
1.40845
1.40845
1.40845
1.40845
1.40845
1.40845
1.40845
1.40845
1.40843
1.40831
1.40723
1.39791
1.32716
1.04907
0.547878
0.549867
0.630703
0.655603
0.651894
0.647086
0.65439
0.673541
0.708725
1.40845
1.40845
1.40845
1.40845
1.40845
1.40845
1.40845
1.40845
1.40845
1.40845
1.40844
1.40839
1.40785
1.4033
1.36324
1.15531
0.770383
0.501816
0.626643
0.650049
0.658495
0.658999
0.664463
0.678059
0.70408
1.40845
1.40845
1.40845
1.40845
1.40845
1.40845
1.40845
1.40845
1.40845
1.40845
1.40845
1.40841
1.4081
1.40548
1.38345
1.2499
0.903873
0.505523
0.606988
0.643973
0.668479
0.670831
0.675538
0.685518
0.705401
1.40845
1.40845
1.40845
1.40845
1.40845
1.40845
1.40845
1.40845
1.40845
1.40845
1.40845
1.40839
1.40838
1.40726
1.39831
1.32541
1.00863
0.548218
0.56986
0.648937
0.682641
0.68427
0.68769
0.695294
0.710041
1.40845
1.40845
1.40845
1.40845
1.40845
1.40845
1.40845
1.40845
1.40845
1.40845
1.40845
1.40844
1.40837
1.40782
1.40329
1.36727
1.17895
0.760545
0.511437
0.643261
0.662927
0.686559
0.694213
0.702962
0.71619
1.40845
1.40845
1.40845
1.40845
1.40845
1.40845
1.40845
1.40845
1.40845
1.40845
1.40845
1.40844
1.40836
1.4084
1.40648
1.39332
1.28907
0.897525
0.530291
0.604722
0.66665
0.695421
0.703553
0.712583
0.724222
1.40845
1.40845
1.40845
1.40845
1.40845
1.40845
1.40845
1.40845
1.40845
1.40845
1.40845
1.40845
1.40844
1.40833
1.40746
1.40036
1.34729
1.11182
0.608027
0.550598
0.66185
0.688679
0.704968
0.717074
0.730585
1.40845
1.40845
1.40845
1.40845
1.40845
1.40845
1.40845
1.40845
1.40845
1.40845
1.40845
1.40845
1.40844
1.40833
1.40838
1.40576
1.39228
1.27728
0.806985
0.518771
0.627602
0.674842
0.708581
0.721602
0.735957
1.40845
1.40845
1.40845
1.40845
1.40845
1.40845
1.40845
1.40845
1.40845
1.40845
1.40845
1.40845
1.40845
1.40843
1.40828
1.4071
1.39771
1.33067
1.06755
0.557895
0.576653
0.670729
0.703317
0.720346
0.736085
1.40845
1.40845
1.40845
1.40845
1.40845
1.40845
1.40845
1.40845
1.40845
1.40845
1.40845
1.40845
1.40845
1.40844
1.40834
1.40835
1.40531
1.39249
1.26521
0.747034
0.516647
0.637996
0.681719
0.719935
0.735197
1.40845
1.40845
1.40845
1.40845
1.40845
1.40845
1.40845
1.40845
1.40845
1.40845
1.40845
1.40845
1.40845
1.40845
1.40843
1.40826
1.40687
1.39606
1.32177
1.05198
0.559928
0.591449
0.68426
0.713573
0.732734
1.40845
1.40845
1.40845
1.40845
1.40845
1.40845
1.40845
1.40845
1.40845
1.40845
1.40845
1.40845
1.40845
1.40845
1.40844
1.40839
1.40772
1.40123
1.39871
1.2791
0.74898
0.523613
0.646239
0.691551
0.729574
1.40845
1.40845
1.40845
1.40845
1.40845
1.40845
1.40845
1.40845
1.40845
1.40845
1.40845
1.40845
1.40845
1.40845
1.40845
1.40842
1.40824
1.40676
1.39642
1.32427
1.04915
0.570062
0.597919
0.693559
0.719653
1.40845
1.40845
1.40845
1.40845
1.40845
1.40845
1.40845
1.40845
1.40845
1.40845
1.40845
1.40845
1.40845
1.40845
1.40845
1.40844
1.40838
1.40778
1.40282
1.3972
1.29234
0.790069
0.534023
0.648365
0.702663
1.40845
1.40845
1.40845
1.40845
1.40845
1.40845
1.40845
1.40845
1.40845
1.40845
1.40845
1.40845
1.40845
1.40845
1.40845
1.40845
1.40843
1.40829
1.40712
1.39865
1.33673
1.06775
0.585434
0.595148
0.697507
1.40845
1.40845
1.40845
1.40845
1.40845
1.40845
1.40845
1.40845
1.40845
1.40845
1.40845
1.40845
1.40845
1.40845
1.40845
1.40845
1.40844
1.4084
1.4081
1.40588
1.39246
1.28642
0.850838
0.55543
0.645496
1.40845
1.40845
1.40845
1.40845
1.40845
1.40845
1.40845
1.40845
1.40845
1.40845
1.40845
1.40845
1.40845
1.40845
1.40845
1.40845
1.40845
1.40843
1.40833
1.40744
1.40079
1.35033
1.11061
0.653003
0.587924
1.40845
1.40845
1.40845
1.40845
1.40845
1.40845
1.40845
1.40845
1.40845
1.40845
1.40845
1.40845
1.40845
1.40845
1.40845
1.40845
1.40845
1.40845
1.40842
1.40822
1.40651
1.39512
1.30383
0.936051
0.591355
1.40845
1.40845
1.40845
1.40845
1.40845
1.40845
1.40845
1.40845
1.40845
1.40845
1.40845
1.40845
1.40845
1.40845
1.40845
1.40845
1.40845
1.40845
1.40844
1.40834
1.40762
1.40239
1.36445
1.17471
0.788492
1.40845
1.40845
1.40845
1.40845
1.40845
1.40845
1.40845
1.40845
1.40845
1.40845
1.40845
1.40845
1.40845
1.40845
1.40845
1.40845
1.40845
1.40845
1.40845
1.40843
1.40831
1.40727
1.39998
1.3391
1.07001
1.40845
1.40845
1.40845
1.40845
1.40845
1.40845
1.40845
1.40845
1.40845
1.40845
1.40845
1.40845
1.40845
1.40845
1.40845
1.40845
1.40845
1.40845
1.40845
1.40846
1.40858
1.41022
1.40871
1.39317
1.29282
1.40845
1.40845
1.40845
1.40845
1.40845
1.40845
1.40845
1.40845
1.40845
1.40845
1.40845
1.40845
1.40845
1.40845
1.40845
1.40845
1.40845
1.40845
1.40845
1.40845
1.40845
1.40841
1.40782
1.40329
1.36847
1.40845
1.40845
1.40845
1.40845
1.40845
1.40845
1.40845
1.40845
1.40845
1.40845
1.40845
1.40845
1.40845
1.40845
1.40845
1.40845
1.40845
1.40845
1.40845
1.40845
1.40845
1.40848
1.40844
1.40761
1.40019
1.40845
1.40845
1.40845
1.40845
1.40845
1.40845
1.40845
1.40845
1.40845
1.40845
1.40845
1.40845
1.40845
1.40845
1.40845
1.40845
1.40845
1.40845
1.40845
1.40845
1.40845
1.40845
1.4084
1.40826
1.40691
1.40845
1.40845
1.40845
1.40845
1.40845
1.40845
1.40845
1.40845
1.40845
1.40845
1.40845
1.40845
1.40845
1.40845
1.40845
1.40845
1.40845
1.40845
1.40845
1.40845
1.40845
1.40845
1.40845
1.40838
1.40782
1.40845
1.40845
1.40845
1.40845
1.40845
1.40845
1.40845
1.40845
1.40845
1.40845
1.40845
1.40845
1.40845
1.40845
1.40845
1.40845
1.40845
1.40845
1.40845
1.40845
1.40845
1.40845
1.40845
1.40844
1.40833
1.40845
1.40845
1.40845
1.40845
1.40845
1.40845
1.40845
1.40845
1.40845
1.40845
1.40845
1.40845
1.40845
1.40845
1.40845
1.40845
1.40845
1.40845
1.40845
1.40845
1.40845
1.40845
1.40845
1.40845
1.40842
1.40845
1.40845
1.40845
1.40845
1.40845
1.40845
1.40845
1.40845
1.40845
1.40845
1.40845
1.40845
1.40845
1.40845
1.40845
1.40845
1.40845
1.40845
1.40845
1.40845
1.40845
1.40845
1.40845
1.40845
1.40844
1.40845
1.40845
1.40845
1.40845
1.40845
1.40845
1.40845
1.40845
1.40845
1.40845
1.40845
1.40845
1.40845
1.40845
1.40845
1.40845
1.40845
1.40845
1.40845
1.40845
1.40845
1.40845
1.40845
1.40845
1.40845
1.40845
1.40845
1.40845
1.40845
1.40845
1.40845
1.40845
1.40845
1.40845
1.40845
1.40845
1.40845
1.40845
1.40845
1.40845
1.40845
1.40845
1.40845
1.40845
1.40845
1.40845
1.40845
1.40845
1.40845
1.40845
1.40845
1.40845
1.40845
1.40845
1.40845
1.40845
1.40845
1.40845
1.40845
1.40845
1.40845
1.40845
1.40845
1.40845
1.40845
1.40845
1.40845
1.40845
1.40845
1.40845
1.40845
1.40845
1.40845
1.40845
1.40845
1.40845
1.40845
1.40845
1.40845
1.40845
1.40845
1.40845
1.40845
1.40845
1.40845
1.40845
1.40845
1.40845
1.40845
1.40845
1.40845
1.40845
1.40845
1.40845
1.40845
1.40845
1.40845
1.40845
1.40845
1.40845
1.40845
1.40845
1.40845
1.40845
1.40845
1.40845
1.40845
1.40845
1.40845
1.40845
1.40845
1.40845
1.40845
1.40845
1.40845
1.40845
1.40845
1.40845
1.40845
1.40845
1.40845
1.40845
1.40845
1.40845
1.40845
1.40845
1.40845
1.40845
1.40845
1.40845
1.40845
1.40845
1.40845
1.40845
1.40845
1.40845
1.40845
1.40845
1.40845
1.40845
1.40845
1.40845
1.40845
1.40845
1.40845
1.40845
1.40845
1.40845
1.40845
1.40845
0.647566
0.575507
0.518815
0.526189
0.530348
0.519639
0.511139
0.508983
0.546372
0.562208
0.564365
0.563145
0.562448
0.558353
0.554376
0.571411
0.585751
0.592411
0.5934
0.592114
0.590997
0.590435
0.589874
0.589903
0.589896
0.59193
0.593667
0.594422
0.595016
0.595301
0.595223
0.596459
0.594394
0.593324
0.590215
0.578572
0.569081
0.560309
0.552559
0.541542
0.534388
0.528925
0.520941
0.514533
0.507647
0.503871
0.502405
0.501109
0.499611
0.499216
0.49735
0.499695
0.50179
0.504251
0.506821
0.509285
0.511948
0.514864
0.517906
0.520818
0.523777
0.526815
0.529719
0.532623
0.535522
0.538394
0.541172
0.543902
0.546651
0.549291
0.551938
0.554563
0.557196
0.559748
0.562294
0.564835
0.567407
0.569994
0.572607
0.575154
0.577718
0.5802
0.582699
0.585193
0.58773
0.590273
0.592866
0.595406
0.597987
0.600409
0.602865
0.60513
0.60747
0.609713
0.612036
0.614399
0.616814
0.619934
0.621442
0.620706
0.651385
0.587102
0.564977
0.530818
0.517294
0.511781
0.489079
0.463387
0.495407
0.508001
0.508816
0.49913
0.497331
0.492475
0.491216
0.505271
0.512309
0.515895
0.51487
0.514178
0.513187
0.512512
0.512102
0.512349
0.512129
0.513616
0.515229
0.516211
0.517376
0.517657
0.51746
0.518371
0.516846
0.515421
0.515339
0.506074
0.499282
0.494194
0.492025
0.48606
0.482884
0.481183
0.48081
0.476426
0.476384
0.478766
0.481382
0.48408
0.488938
0.493292
0.498909
0.505716
0.511472
0.517176
0.523679
0.529539
0.534862
0.539807
0.545042
0.549744
0.553992
0.558383
0.562638
0.566502
0.570331
0.57434
0.577934
0.581153
0.584332
0.587513
0.590685
0.593677
0.596454
0.599122
0.601831
0.604472
0.607151
0.60968
0.612071
0.614214
0.616207
0.617979
0.619606
0.621114
0.622609
0.62409
0.625593
0.627118
0.628685
0.630295
0.631984
0.633768
0.635701
0.637781
0.640027
0.642386
0.644888
0.647853
0.650014
0.649324
0.729921
0.66066
0.620828
0.565455
0.541596
0.534514
0.529449
0.504048
0.482567
0.481085
0.479184
0.48322
0.487089
0.478386
0.469952
0.461489
0.478568
0.485196
0.48587
0.4861
0.482966
0.481492
0.480486
0.480965
0.481427
0.482321
0.484143
0.484193
0.484105
0.484184
0.483415
0.484897
0.483565
0.482673
0.482771
0.477291
0.470426
0.469153
0.45696
0.459058
0.462684
0.463293
0.468119
0.475915
0.488407
0.501838
0.513997
0.52546
0.534612
0.544922
0.555542
0.567235
0.575251
0.581171
0.587941
0.593963
0.599697
0.605232
0.61093
0.616288
0.620883
0.625304
0.629493
0.633115
0.63661
0.640159
0.643743
0.647401
0.650874
0.654094
0.657111
0.660015
0.662932
0.665784
0.668498
0.671152
0.673835
0.676536
0.67923
0.681821
0.68429
0.686532
0.688692
0.69062
0.692431
0.69402
0.695542
0.696945
0.698366
0.699608
0.700792
0.701967
0.703221
0.704625
0.7062
0.707953
0.709968
0.712889
0.714256
0.712533
0.79558
0.760201
0.716221
0.651316
0.596982
0.567757
0.569542
0.561584
0.537512
0.512703
0.499559
0.491712
0.491764
0.494106
0.493098
0.478675
0.473125
0.473364
0.473062
0.474372
0.475714
0.483507
0.485473
0.483651
0.483214
0.483275
0.48394
0.484583
0.485875
0.486681
0.485372
0.485786
0.479695
0.474734
0.464815
0.458043
0.459223
0.462214
0.470134
0.481984
0.500123
0.517213
0.531791
0.545443
0.559878
0.573896
0.589616
0.599413
0.603175
0.61216
0.62008
0.625299
0.631391
0.63748
0.644149
0.648693
0.652842
0.656879
0.661233
0.666465
0.671291
0.674656
0.677852
0.681157
0.684624
0.68804
0.690947
0.693683
0.696525
0.69954
0.702738
0.705907
0.708832
0.711505
0.714068
0.716633
0.719257
0.721914
0.724563
0.726887
0.729082
0.731298
0.733535
0.735809
0.738063
0.740144
0.742146
0.743844
0.745491
0.746916
0.748067
0.74917
0.750296
0.751555
0.752944
0.754502
0.756357
0.759002
0.76086
0.758796
0.802932
0.798964
0.776489
0.734274
0.685802
0.632094
0.622032
0.635301
0.609857
0.57759
0.551795
0.530356
0.51686
0.51668
0.517736
0.514734
0.50649
0.49708
0.489816
0.484049
0.481569
0.482405
0.484469
0.485221
0.486125
0.486478
0.485209
0.48537
0.486067
0.487193
0.487858
0.484383
0.479947
0.473683
0.473901
0.478866
0.4922
0.512473
0.538089
0.552091
0.571247
0.584759
0.600698
0.613498
0.630636
0.640236
0.651247
0.656299
0.659448
0.667245
0.670647
0.673327
0.677663
0.68188
0.686231
0.688663
0.691612
0.695474
0.699762
0.703196
0.706557
0.709226
0.712186
0.71587
0.719183
0.721594
0.723795
0.726272
0.729129
0.732361
0.735483
0.738027
0.740379
0.742853
0.74554
0.748438
0.751563
0.754304
0.75648
0.758578
0.760714
0.762939
0.765247
0.767594
0.76992
0.77209
0.774235
0.776229
0.778218
0.779942
0.781381
0.782704
0.784025
0.785451
0.786964
0.788593
0.79047
0.792976
0.795116
0.792724
0.786639
0.811738
0.802975
0.780969
0.752453
0.720005
0.690018
0.697966
0.673629
0.638746
0.611215
0.590332
0.569857
0.562014
0.560687
0.555725
0.546508
0.534758
0.525263
0.515545
0.50722
0.501287
0.497822
0.495942
0.493841
0.493521
0.49235
0.492171
0.491504
0.489783
0.488674
0.485949
0.487657
0.493649
0.505927
0.522249
0.548252
0.577101
0.608075
0.626553
0.647243
0.654514
0.665402
0.677281
0.691195
0.6924
0.696301
0.700853
0.708246
0.710202
0.706668
0.709122
0.712589
0.714552
0.716955
0.719078
0.721525
0.723869
0.726556
0.728776
0.731818
0.735551
0.737551
0.739843
0.742405
0.744942
0.747625
0.750347
0.752693
0.754873
0.757101
0.759527
0.762247
0.765338
0.768639
0.771377
0.773707
0.776053
0.778463
0.780966
0.783345
0.78571
0.788075
0.790459
0.792846
0.795264
0.797723
0.799917
0.802073
0.803943
0.805456
0.806953
0.808481
0.810117
0.81185
0.813715
0.815838
0.81853
0.821349
0.818913
0.759558
0.801443
0.814926
0.812286
0.797334
0.781864
0.766587
0.76832
0.760127
0.732828
0.696583
0.671017
0.646891
0.627689
0.616364
0.612193
0.601029
0.587849
0.574054
0.562444
0.550567
0.541001
0.53238
0.525972
0.519033
0.515233
0.509589
0.507424
0.504061
0.498215
0.49853
0.500603
0.506085
0.522131
0.55367
0.596375
0.635987
0.675294
0.696699
0.720451
0.730242
0.731659
0.734132
0.731812
0.727849
0.720505
0.724694
0.731831
0.742321
0.742434
0.741253
0.739751
0.735102
0.736776
0.738098
0.740454
0.743072
0.743773
0.744969
0.746672
0.748577
0.751567
0.753282
0.755112
0.757618
0.760349
0.762352
0.764259
0.766304
0.768604
0.771221
0.774106
0.776846
0.779444
0.782028
0.784646
0.7874
0.79035
0.793166
0.795559
0.797911
0.800335
0.80284
0.805429
0.808113
0.810714
0.812951
0.815093
0.817247
0.819249
0.821022
0.822833
0.824719
0.826703
0.828773
0.830956
0.833375
0.836357
0.839566
0.837039
0.739084
0.779964
0.809876
0.815834
0.810111
0.809619
0.806054
0.817242
0.817388
0.807913
0.782502
0.751209
0.725915
0.706686
0.686759
0.685305
0.679112
0.663491
0.644218
0.628103
0.608415
0.597398
0.585429
0.575518
0.563206
0.554934
0.544496
0.538285
0.530231
0.519114
0.515072
0.524376
0.544001
0.58036
0.639424
0.683347
0.722965
0.757207
0.777204
0.800375
0.804618
0.810678
0.81146
0.805904
0.797663
0.783528
0.765024
0.742072
0.746193
0.754277
0.763103
0.763691
0.760709
0.755388
0.749969
0.752193
0.753618
0.755397
0.75643
0.757284
0.757194
0.75818
0.761818
0.764206
0.766137
0.767807
0.769369
0.771167
0.773481
0.776157
0.778839
0.781372
0.783963
0.786742
0.789871
0.793111
0.795563
0.797948
0.800393
0.802973
0.805736
0.808599
0.811301
0.813886
0.816357
0.818624
0.820869
0.82318
0.825567
0.828069
0.830368
0.832538
0.834729
0.836945
0.839198
0.841545
0.844122
0.847273
0.850736
0.848134
0.731403
0.757875
0.792561
0.804618
0.817622
0.81848
0.8229
0.83577
0.852903
0.858894
0.849934
0.829731
0.80846
0.791007
0.771623
0.766522
0.761459
0.747063
0.727688
0.707755
0.689266
0.671475
0.655686
0.642871
0.629193
0.614976
0.599634
0.585855
0.559678
0.543847
0.547581
0.567394
0.60216
0.662429
0.725487
0.760527
0.788758
0.814048
0.831706
0.850822
0.861579
0.872413
0.874452
0.869897
0.86443
0.84948
0.8299
0.808226
0.778373
0.741348
0.752057
0.769597
0.769571
0.768476
0.765702
0.761215
0.758235
0.759968
0.760917
0.763537
0.762495
0.762978
0.765174
0.768282
0.769823
0.771459
0.773362
0.775309
0.777366
0.779705
0.782285
0.785091
0.788138
0.791011
0.793227
0.795482
0.797836
0.800437
0.80342
0.806642
0.80947
0.812044
0.814534
0.817
0.819439
0.821898
0.824437
0.827074
0.829694
0.832234
0.834476
0.8367
0.838999
0.841378
0.843828
0.846383
0.849147
0.852443
0.856004
0.853215
0.732035
0.751345
0.775093
0.788467
0.810504
0.814716
0.822801
0.837314
0.854983
0.876277
0.879472
0.872871
0.859111
0.849587
0.840779
0.832799
0.827994
0.821706
0.810433
0.794663
0.777181
0.759425
0.74227
0.725865
0.710006
0.69336
0.672006
0.64882
0.605672
0.567259
0.592469
0.624241
0.67199
0.741505
0.778082
0.808961
0.83079
0.852284
0.871321
0.885643
0.89631
0.908011
0.912852
0.911613
0.910461
0.90139
0.889883
0.869932
0.838818
0.805863
0.769107
0.742293
0.753624
0.764844
0.774725
0.772758
0.769276
0.76438
0.76406
0.765422
0.767404
0.767817
0.769187
0.771919
0.772764
0.773627
0.775295
0.777938
0.780854
0.783552
0.78592
0.788285
0.790564
0.7929
0.795206
0.797538
0.800078
0.802884
0.805795
0.808421
0.810976
0.813534
0.816103
0.818709
0.821398
0.82399
0.826403
0.828826
0.831262
0.833684
0.836061
0.838403
0.840776
0.843189
0.845631
0.848156
0.850889
0.854172
0.857801
0.854948
0.734573
0.7505
0.76732
0.778693
0.79663
0.805477
0.817441
0.833051
0.851234
0.871179
0.89177
0.891636
0.88645
0.881577
0.877242
0.872961
0.875416
0.875081
0.872824
0.865864
0.853022
0.836989
0.821966
0.806469
0.789899
0.769799
0.742956
0.697678
0.610341
0.618211
0.644527
0.679437
0.729982
0.780091
0.811679
0.837321
0.857647
0.878468
0.895928
0.909952
0.921498
0.92935
0.92967
0.932313
0.935537
0.93259
0.92698
0.913853
0.895763
0.873848
0.840594
0.799427
0.743286
0.749213
0.770379
0.771966
0.776766
0.775914
0.774192
0.77146
0.771897
0.772216
0.77324
0.776285
0.777512
0.778638
0.78014
0.782566
0.78539
0.788112
0.790413
0.792751
0.795216
0.797805
0.800475
0.802706
0.804969
0.807335
0.809763
0.812232
0.814648
0.817081
0.819582
0.822148
0.824642
0.826827
0.828995
0.831206
0.833461
0.83576
0.838094
0.840462
0.842871
0.845313
0.847772
0.850312
0.853068
0.856404
0.860134
0.857218
0.739674
0.753387
0.767823
0.777975
0.788834
0.797637
0.810084
0.825173
0.84302
0.862699
0.883406
0.896909
0.896963
0.895593
0.894037
0.895058
0.897221
0.901216
0.908229
0.90685
0.901419
0.8915
0.87987
0.86767
0.851185
0.828448
0.789804
0.722167
0.626021
0.669933
0.692558
0.723921
0.768984
0.795138
0.819423
0.840712
0.863447
0.884955
0.900245
0.915779
0.930696
0.940337
0.943222
0.944979
0.944393
0.941268
0.940003
0.939846
0.935027
0.924426
0.902389
0.870627
0.832056
0.789672
0.74079
0.755003
0.769928
0.787271
0.786043
0.784222
0.778984
0.780941
0.781701
0.783234
0.786709
0.787997
0.789469
0.791311
0.793869
0.7966
0.799371
0.80185
0.804195
0.806674
0.809373
0.811888
0.814143
0.816394
0.818594
0.820818
0.823089
0.82552
0.827765
0.829806
0.831688
0.833516
0.835398
0.837371
0.839438
0.841605
0.843847
0.84612
0.84837
0.850621
0.852905
0.855297
0.857943
0.861221
0.864864
0.861723
0.745845
0.757806
0.76912
0.7799
0.7878
0.794225
0.803009
0.815147
0.831561
0.851491
0.872287
0.887642
0.899703
0.902123
0.900685
0.901843
0.906334
0.914856
0.920275
0.925737
0.926596
0.923281
0.913804
0.902531
0.884014
0.848838
0.786456
0.673466
0.674265
0.701578
0.721129
0.748165
0.779102
0.799435
0.819375
0.840126
0.860571
0.875068
0.890466
0.906448
0.913734
0.921886
0.932082
0.942996
0.946407
0.945773
0.947575
0.95132
0.95017
0.947633
0.939712
0.926594
0.904008
0.870496
0.830001
0.774612
0.759165
0.778745
0.78506
0.797322
0.795194
0.795047
0.792257
0.793105
0.793961
0.796265
0.798683
0.800474
0.802365
0.804405
0.806685
0.809209
0.812452
0.815051
0.817204
0.819206
0.82112
0.823088
0.825169
0.827418
0.829758
0.832167
0.834561
0.836805
0.838904
0.840966
0.843072
0.845235
0.847446
0.849637
0.851778
0.853844
0.855881
0.857925
0.860022
0.862238
0.864753
0.867952
0.87155
0.868144
0.750408
0.763015
0.772848
0.78333
0.790961
0.795359
0.801742
0.810939
0.823122
0.839034
0.857705
0.874771
0.889321
0.901154
0.902698
0.903781
0.907283
0.912937
0.921043
0.930771
0.940901
0.935304
0.927421
0.915783
0.888725
0.832166
0.749961
0.676125
0.71315
0.724012
0.740446
0.760066
0.778221
0.794565
0.811567
0.82848
0.843176
0.857172
0.871842
0.882366
0.893178
0.905458
0.919209
0.923453
0.929046
0.938687
0.951018
0.958294
0.957141
0.953313
0.956538
0.959045
0.952915
0.939628
0.911986
0.871866
0.826415
0.759269
0.767419
0.789182
0.79729
0.805904
0.803955
0.802655
0.801765
0.802234
0.804162
0.806596
0.808477
0.810729
0.812414
0.814201
0.816471
0.819319
0.821106
0.823294
0.825802
0.828316
0.830828
0.83341
0.836057
0.838739
0.841268
0.843681
0.845698
0.847408
0.849085
0.850799
0.852566
0.854433
0.856445
0.858631
0.861013
0.863558
0.866266
0.8691
0.872128
0.875672
0.879472
0.875787
0.752157
0.767333
0.778074
0.786558
0.795052
0.799051
0.803225
0.810668
0.820301
0.832268
0.846191
0.862843
0.874791
0.891005
0.90025
0.901786
0.904254
0.910107
0.918605
0.927376
0.938617
0.934114
0.926196
0.906954
0.861154
0.782428
0.678756
0.702328
0.727545
0.741621
0.752155
0.762411
0.774095
0.787414
0.802424
0.817441
0.830226
0.843758
0.855547
0.865818
0.877981
0.891212
0.898562
0.907265
0.918397
0.931682
0.938861
0.94672
0.958878
0.965339
0.970917
0.973722
0.977152
0.976126
0.963169
0.941939
0.905939
0.859598
0.809466
0.760049
0.775152
0.788815
0.814046
0.811839
0.809897
0.806583
0.807558
0.809589
0.811535
0.813266
0.816637
0.817985
0.81935
0.821206
0.824286
0.82746
0.829092
0.830664
0.832398
0.834399
0.836793
0.839681
0.843007
0.845302
0.847352
0.849376
0.851417
0.853502
0.855628
0.85779
0.859998
0.862282
0.86469
0.867216
0.869881
0.872656
0.875675
0.879312
0.883587
0.880101
0.751368
0.767586
0.780187
0.790098
0.798657
0.804145
0.80705
0.811977
0.819594
0.82977
0.842252
0.856261
0.867704
0.878912
0.893014
0.89758
0.89962
0.905416
0.913108
0.924377
0.927323
0.923413
0.913611
0.877339
0.805998
0.690555
0.706952
0.737486
0.741184
0.746883
0.753435
0.761205
0.770328
0.7806
0.792171
0.804879
0.81669
0.829332
0.840464
0.852004
0.865437
0.87489
0.884617
0.896596
0.910422
0.917773
0.92781
0.939675
0.951621
0.964298
0.975231
0.984215
0.986712
0.986447
0.981135
0.977783
0.962536
0.934359
0.893456
0.843387
0.775208
0.777314
0.800918
0.804747
0.819754
0.817887
0.81591
0.812719
0.813271
0.814589
0.817186
0.821489
0.823336
0.824613
0.826245
0.828315
0.830051
0.831859
0.833925
0.836226
0.838727
0.841425
0.844503
0.84732
0.849285
0.851347
0.853577
0.856003
0.858463
0.860751
0.863044
0.86533
0.867674
0.870127
0.872753
0.87557
0.878694
0.882449
0.88691
0.88317
0.749252
0.766349
0.782
0.79045
0.801192
0.80834
0.812053
0.815846
0.8217
0.830007
0.84066
0.85217
0.864497
0.872876
0.886119
0.894084
0.894986
0.899832
0.908757
0.915898
0.912296
0.905951
0.877858
0.818255
0.709334
0.713903
0.741347
0.742827
0.745208
0.748517
0.752882
0.758502
0.765561
0.774178
0.78418
0.795084
0.806445
0.818323
0.829617
0.842304
0.854157
0.863581
0.87552
0.888868
0.898352
0.909248
0.920556
0.930529
0.941279
0.953655
0.962216
0.970823
0.977381
0.985613
0.986541
0.990209
0.986024
0.975833
0.957762
0.928251
0.885909
0.837063
0.772201
0.783837
0.799317
0.815138
0.823446
0.819925
0.819849
0.818724
0.819768
0.823057
0.828366
0.831375
0.831625
0.832545
0.83373
0.835059
0.836632
0.838702
0.841383
0.844487
0.847531
0.850174
0.852177
0.854173
0.856222
0.858317
0.860454
0.862669
0.865066
0.867705
0.870578
0.873607
0.876703
0.879807
0.883026
0.886731
0.890967
0.886826
0.746098
0.763227
0.780591
0.789516
0.799207
0.810181
0.813428
0.817532
0.823886
0.83175
0.840704
0.849972
0.860815
0.870519
0.883634
0.890425
0.892804
0.901208
0.900545
0.898843
0.895488
0.872987
0.820023
0.721232
0.710309
0.736985
0.739049
0.743191
0.746161
0.748268
0.75116
0.755394
0.761618
0.769409
0.778786
0.788656
0.79926
0.810402
0.822028
0.834572
0.844612
0.85679
0.870845
0.879508
0.891263
0.904833
0.912638
0.921829
0.932477
0.943541
0.952027
0.962427
0.969464
0.978234
0.990742
0.992408
0.993168
0.991457
0.990719
0.981941
0.959747
0.923447
0.872743
0.81781
0.784486
0.803316
0.809427
0.829258
0.828238
0.82531
0.825355
0.825847
0.827745
0.830974
0.835539
0.835892
0.836274
0.837135
0.838422
0.840495
0.843576
0.847436
0.851182
0.853105
0.854921
0.856748
0.858574
0.860427
0.86237
0.864522
0.866997
0.869802
0.872854
0.876077
0.879344
0.882712
0.886199
0.890213
0.894866
0.890582
0.739426
0.758776
0.777938
0.79083
0.797492
0.80918
0.814429
0.817287
0.823775
0.832334
0.842283
0.84917
0.858367
0.868748
0.88196
0.88902
0.898138
0.896378
0.892333
0.886268
0.866628
0.820135
0.739804
0.699578
0.730452
0.734139
0.741876
0.746429
0.747633
0.749404
0.751914
0.755622
0.760859
0.76761
0.775869
0.785439
0.795737
0.806809
0.817836
0.828329
0.839344
0.851322
0.861182
0.872682
0.886019
0.894046
0.902961
0.913477
0.925232
0.93342
0.942906
0.95198
0.961603
0.970973
0.98076
0.986152
0.995992
0.997013
1.0003
0.999789
0.998553
0.984438
0.9546
0.912169
0.862109
0.789549
0.792449
0.812711
0.820016
0.838075
0.835733
0.830685
0.830635
0.831635
0.834282
0.838667
0.839932
0.841096
0.842604
0.844391
0.846735
0.84977
0.853612
0.856545
0.858173
0.859868
0.861646
0.863459
0.865323
0.867403
0.869861
0.87268
0.875725
0.878924
0.882142
0.885528
0.889146
0.893443
0.898534
0.894197
0.736884
0.75245
0.771094
0.788567
0.79643
0.807334
0.815992
0.818112
0.822911
0.830877
0.841723
0.84905
0.856372
0.866353
0.878788
0.893909
0.896544
0.889016
0.882175
0.866566
0.823327
0.753484
0.690238
0.724114
0.729058
0.737944
0.74639
0.747931
0.749981
0.752729
0.755892
0.759618
0.764029
0.769609
0.776411
0.784907
0.794518
0.805256
0.81547
0.826256
0.837867
0.847041
0.857539
0.870027
0.8782
0.886827
0.896917
0.908678
0.918148
0.926951
0.936815
0.946241
0.956689
0.965444
0.97077
0.977974
0.986135
0.995212
1.00707
1.00827
1.01225
1.00971
1.00216
0.984484
0.945227
0.897337
0.844195
0.785918
0.802068
0.815989
0.836299
0.845061
0.842791
0.839815
0.840154
0.840992
0.842661
0.844379
0.84646
0.848438
0.850601
0.85321
0.856306
0.859839
0.861715
0.863621
0.865746
0.867795
0.869757
0.87179
0.874108
0.876767
0.879596
0.8825
0.885433
0.888542
0.892095
0.896594
0.902115
0.897757
0.715512
0.742089
0.763407
0.78562
0.796033
0.804538
0.816366
0.81845
0.822333
0.829326
0.839946
0.848274
0.854286
0.863222
0.87533
0.896002
0.891711
0.88076
0.866457
0.828322
0.761355
0.682397
0.70955
0.721771
0.741314
0.746321
0.747268
0.74994
0.753433
0.757262
0.761291
0.765122
0.76921
0.773958
0.77963
0.786398
0.79437
0.803096
0.81304
0.823542
0.833879
0.844088
0.855051
0.863393
0.872486
0.882406
0.892633
0.901558
0.911364
0.921837
0.932069
0.941862
0.951044
0.958137
0.964446
0.972735
0.981967
0.99136
0.999448
1.00855
1.01942
1.01859
1.01932
1.01574
1.00069
0.972595
0.930868
0.877601
0.806604
0.801697
0.823634
0.829804
0.850334
0.849357
0.844486
0.844707
0.845479
0.846717
0.848282
0.851023
0.85466
0.858837
0.861082
0.863249
0.865319
0.867271
0.869027
0.870616
0.872269
0.874179
0.876614
0.879433
0.88233
0.885258
0.888488
0.892031
0.895912
0.900559
0.906239
0.901849
0.716837
0.737728
0.755578
0.777726
0.792557
0.801348
0.815381
0.820232
0.821078
0.826909
0.837611
0.847219
0.853132
0.861609
0.873698
0.886193
0.880262
0.869281
0.834129
0.770009
0.676228
0.698088
0.715199
0.738375