/*--------------------------------*- C++ -*----------------------------------*\
| =========                 |                                                 |
| \\      /  F ield         | OpenFOAM: The Open Source CFD Toolbox           |
|  \\    /   O peration     | Version:  v2106                                 |
|   \\  /    A nd           | Website:  www.openfoam.com                      |
|    \\/     M anipulation  |                                                 |
\*---------------------------------------------------------------------------*/
FoamFile
{
    version     2.0;
    format      ascii;
    arch        "LSB;label=32;scalar=64";
    class       volScalarField;
    location    "14";
    object      T;
}
// * * * * * * * * * * * * * * * * * * * * * * * * * * * * * * * * * * * * * //

dimensions      [0 0 0 1 0 0 0];

internalField   nonuniform List<scalar> 
5250
(
1
1
1
1
1
1
1
1
1.00002
1.00015
1.00138
1.01285
1.10224
1.47707
2.7423
2.69341
2.53989
2.52134
2.5646
2.55623
2.55979
2.5678
2.56641
2.56196
2.5549
1
1
1
1
1
1
1
1
1.00002
1.00015
1.00136
1.01265
1.10066
1.46708
2.72406
2.69442
2.5341
2.51218
2.55701
2.54771
2.5521
2.56289
2.56153
2.55764
2.55097
1
1
1
1
1
1
1
1
1.00002
1.00016
1.00136
1.01228
1.09368
1.44805
2.685
2.70067
2.51863
2.49068
2.53749
2.52994
2.53588
2.54879
2.54955
2.54663
2.54025
1
1
1
1
1
1
1
1
1.00001
1.00013
1.00118
1.01042
1.08233
1.41742
2.54392
2.71066
2.47231
2.45004
2.50197
2.50214
2.51127
2.5279
2.53426
2.53329
2.52838
1
1
1
1
1
1
1
1
1.00001
1.00011
1.00101
1.00891
1.07152
1.37627
2.33746
2.72486
2.40163
2.3893
2.4458
2.45797
2.47636
2.50028
2.51469
2.51558
2.51204
1
1
1
1
1
1
1
1
1.00001
1.00009
1.00078
1.00676
1.05634
1.31886
2.02954
2.76638
2.2978
2.29563
2.36191
2.39455
2.43012
2.46763
2.49101
2.49633
2.49221
1
1
1
1
1
1
1
1
1.00001
1.00007
1.00059
1.00514
1.04484
1.27171
1.92717
2.90782
2.29019
2.24434
2.2848
2.31373
2.35882
2.41956
2.45493
2.47043
2.46631
1
1
1
1
1
1
1
1
1
1.00004
1.00041
1.00374
1.0342
1.22247
1.81783
3.08972
2.40405
2.27189
2.29197
2.28318
2.30112
2.35787
2.4142
2.44006
2.42106
1
1
1
1
1
1
1
1
1
1.00003
1.00033
1.00296
1.02705
1.18597
1.71639
3.12101
2.5197
2.3443
2.32509
2.28795
2.26886
2.2869
2.34047
2.39558
2.35674
1
1
1
1
1
1
1
1
1
1.00003
1.00025
1.00219
1.0202
1.14776
1.61724
3.03376
2.52808
2.44617
2.39739
2.32369
2.2741
2.25801
2.28145
2.333
2.2081
1
1
1
1
1
1
1
1
1
1.00002
1.00018
1.0016
1.01486
1.11479
1.51608
2.85999
2.5479
2.46537
2.41872
2.36654
2.29646
2.2215
2.19035
2.1741
1.95489
1
1
1
1
1
1
1
1
1
1.00002
1.00014
1.00127
1.01102
1.08262
1.41444
2.65337
2.59109
2.42253
2.38466
2.37607
2.33145
2.241
2.15247
2.11497
1.80377
1
1
1
1
1
1
1
1
1
1.00001
1.00008
1.00072
1.00613
1.05217
1.30836
2.17084
2.67021
2.32271
2.32781
2.34949
2.33415
2.27412
2.15321
2.0878
1.80444
1
1
1
1
1
1
1
1
1
1
1.00004
1.00037
1.00332
1.03287
1.21814
1.81267
2.86039
2.29073
2.26569
2.30255
2.31292
2.27371
2.17276
2.07129
1.82784
1
1
1
1
1
1
1
1
1
1
1.00003
1.00028
1.00234
1.02154
1.15624
1.63762
2.91859
2.296
2.24995
2.25854
2.27502
2.25371
2.17707
2.07755
1.88182
1
1
1
1
1
1
1
1
1
1
1.00002
1.00016
1.00143
1.01318
1.10317
1.4847
2.81692
2.40246
2.21901
2.19779
2.21962
2.21701
2.1722
2.09159
1.94935
1
1
1
1
1
1
1
1
1
1
1.00001
1.0001
1.00087
1.00754
1.06125
1.34257
2.57074
2.56144
2.23314
2.14833
2.16055
2.1766
2.15231
2.09111
1.9873
1
1
1
1
1
1
1
1
1
1
1.00001
1.00004
1.00043
1.00367
1.03316
1.21911
1.82825
2.80671
2.24761
2.16669
2.13889
2.13726
2.11968
2.07718
2.00041
1
1
1
1
1
1
1
1
1
1
1
1.00003
1.00025
1.00212
1.01807
1.12685
1.55824
2.78613
2.32039
2.18713
2.10695
2.09956
2.08493
2.05458
1.99667
1
1
1
1
1
1
1
1
1
1
1
1.00004
1.00005
1.00085
1.00725
1.06265
1.3964
2.56914
2.47157
2.1704
2.06324
2.05832
2.04809
2.02569
1.98362
1
1
1
1
1
1
1
1
1
1
1
1.00001
1.00005
1.00045
1.00367
1.03012
1.19466
1.8519
2.75391
2.18955
2.1246
2.05146
2.02885
2.00359
1.96659
1
1
1
1
1
1
1
1
1
1
1
1.00001
1.00006
1.00003
1.0014
1.01086
1.09261
1.56926
2.656
2.32909
2.11273
2.02532
2.00191
1.97654
1.94478
1
1
1
1
1
1
1
1
1
1
1
1
1.00001
1.00009
1.0007
1.00577
1.04539
1.26679
2.31643
2.55804
2.12805
2.04515
1.99789
1.96416
1.92784
1
1
1
1
1
1
1
1
1
1
1
1
1.00001
1.00008
1.00005
1.00191
1.01161
1.1027
1.74532
2.71497
2.24418
2.08708
1.98771
1.95184
1.91377
1
1
1
1
1
1
1
1
1
1
1
1
1
1.00002
1.00012
1.00096
1.00768
1.05845
1.31933
2.52458
2.44246
2.09988
2.00258
1.95524
1.91343
1
1
1
1
1
1
1
1
1
1
1
1
1
1.00001
1.00008
1.00007
1.00223
1.01146
1.11322
1.88539
2.72614
2.20762
2.06603
1.95636
1.91575
1
1
1
1
1
1
1
1
1
1
1
1
1
1
1.00002
1.00014
1.00113
1.00888
1.06558
1.33886
2.51541
2.38136
2.05836
1.9738
1.92218
1
1
1
1
1
1
1
1
1
1
1
1
1
1
1.00001
1.00005
1.00052
1.00516
1.00696
1.10112
1.88049
2.68987
2.17946
2.03665
1.93051
1
1
1
1
1
1
1
1
1
1
1
1
1
1
1
1.00002
1.00015
1.0012
1.00861
1.06356
1.34247
2.4707
2.35559
2.03076
1.95712
1
1
1
1
1
1
1
1
1
1
1
1
1
1
1
1.00001
1.00005
1.00047
1.00401
1.00805
1.08985
1.78269
2.63743
2.17231
2.00445
1
1
1
1
1
1
1
1
1
1
1
1
1
1
1
1
1.00002
1.00012
1.00094
1.00701
1.05365
1.31908
2.40582
2.36656
2.01926
1
1
1
1
1
1
1
1
1
1
1
1
1
1
1
1
1
1.00003
1.00025
1.00183
1.01148
1.09486
1.65537
2.53579
2.18197
1
1
1
1
1
1
1
1
1
1
1
1
1
1
1
1
1
1.00001
1.00009
1.00072
1.00547
1.04304
1.26818
2.15688
2.39563
1
1
1
1
1
1
1
1
1
1
1
1
1
1
1
1
1
1
1.00002
1.00017
1.00138
1.00955
1.08024
1.50467
2.38174
1
1
1
1
1
1
1
1
1
1
1
1
1
1
1
1
1
1
1.00001
1.00008
1.00059
1.00432
1.03225
1.19897
1.78626
1
1
1
1
1
1
1
1
1
1
1
1
1
1
1
1
1
1
1
1.00001
1.0001
1.00084
1.00605
1.05179
1.3163
1
1
1
1
1
1
1
1
1
1
1
1
1
1
1
1
1
1
0.999999
0.99999
0.999906
0.998748
0.999814
1.01097
1.08944
1
1
1
1
1
1
1
1
1
1
1
1
1
1
1
1
1
1
1
1
1
1.00003
1.00045
1.00368
1.02921
1
1
1
1
1
1
1
1
1
1
1
1
1
1
1
1
1
1
1
1
1
0.99998
1
1.0006
1.0059
1
1
1
1
1
1
1
1
1
1
1
1
1
1
1
1
1
1
1
1
1
1
1.00003
1.00013
1.0011
1
1
1
1
1
1
1
1
1
1
1
1
1
1
1
1
1
1
1
1
1
1
1
1.00005
1.00045
1
1
1
1
1
1
1
1
1
1
1
1
1
1
1
1
1
1
1
1
1
1
1
1.00001
1.00009
1
1
1
1
1
1
1
1
1
1
1
1
1
1
1
1
1
1
1
1
1
1
1
1
1.00002
1
1
1
1
1
1
1
1
1
1
1
1
1
1
1
1
1
1
1
1
1
1
1
1
1.00001
1
1
1
1
1
1
1
1
1
1
1
1
1
1
1
1
1
1
1
1
1
1
1
1
1
1
1
1
1
1
1
1
1
1
1
1
1
1
1
1
1
1
1
1
1
1
1
1
1
1
1
1
1
1
1
1
1
1
1
1
1
1
1
1
1
1
1
1
1
1
1
1
1
1
1
1
1
1
1
1
1
1
1
1
1
1
1
1
1
1
1
1
1
1
1
1
1
1
1
1
1
1
1
1
1
1
1
1
1
1
1
1
1
1
1
1
1
1
1
1
1
1
1
1
1
1
1
1
1
1
1
1
1
1
1
1
1
1
1
1
1
1
1
1
1
1
1
1
1
1
2.17499
2.44732
2.71475
2.6767
2.65571
2.71044
2.75551
2.76718
2.57782
2.50521
2.49564
2.50104
2.50414
2.52251
2.54061
2.46487
2.40452
2.37749
2.37353
2.37868
2.38318
2.38545
2.38771
2.3876
2.38763
2.37942
2.37246
2.36945
2.36708
2.36595
2.36626
2.36135
2.36956
2.37383
2.38633
2.43436
2.47496
2.5137
2.54896
2.60082
2.63563
2.66286
2.70367
2.73734
2.77447
2.79526
2.80342
2.81067
2.81909
2.82133
2.83191
2.81862
2.80685
2.79315
2.77899
2.76554
2.75116
2.73558
2.71951
2.7043
2.68903
2.67352
2.65886
2.64437
2.63005
2.61602
2.6026
2.58953
2.57651
2.56412
2.55183
2.53975
2.52775
2.51622
2.50483
2.49356
2.48226
2.47099
2.45972
2.44883
2.43795
2.42753
2.41712
2.40681
2.39642
2.3861
2.37566
2.36553
2.35532
2.34582
2.33626
2.32752
2.31855
2.31002
2.30125
2.2924
2.28343
2.27193
2.26643
2.26911
2.16224
2.39899
2.49293
2.65336
2.72273
2.75206
2.8798
3.03947
2.84302
2.77254
2.7681
2.82181
2.83202
2.85994
2.86727
2.78751
2.74922
2.73011
2.73555
2.73923
2.74452
2.74813
2.75033
2.74901
2.75019
2.74222
2.73364
2.72844
2.7223
2.72082
2.72185
2.71707
2.72509
2.73262
2.73305
2.78309
2.82095
2.85
2.86256
2.89769
2.91675
2.92706
2.92933
2.95629
2.95654
2.94183
2.92585
2.90954
2.88063
2.8552
2.82306
2.78506
2.75372
2.72335
2.68953
2.65977
2.6333
2.60917
2.58412
2.56201
2.54237
2.52237
2.5033
2.48622
2.46953
2.45229
2.43704
2.42355
2.41036
2.39731
2.38444
2.37242
2.36137
2.35086
2.34028
2.33005
2.31977
2.31015
2.30112
2.2931
2.28568
2.27912
2.27314
2.26762
2.26217
2.25681
2.25139
2.24591
2.24031
2.23459
2.22862
2.22234
2.21559
2.20836
2.20061
2.19253
2.18402
2.17403
2.1668
2.1691
1.92959
2.13188
2.26866
2.49083
2.60056
2.63501
2.66022
2.79428
2.91866
2.92765
2.93927
2.91472
2.89157
2.94417
2.99701
3.05197
2.94305
2.90285
2.89882
2.89745
2.91625
2.92518
2.9313
2.92839
2.92557
2.92015
2.90916
2.90886
2.90939
2.90891
2.91354
2.90464
2.91264
2.91802
2.91743
2.95093
2.99399
3.00211
3.08222
3.06813
3.04409
3.04009
3.00874
2.95946
2.88377
2.80659
2.74019
2.68042
2.63453
2.58468
2.53528
2.48301
2.44841
2.42347
2.39556
2.37128
2.3486
2.32713
2.30542
2.28538
2.26846
2.25243
2.23744
2.22464
2.21242
2.20016
2.18791
2.17554
2.16394
2.15328
2.1434
2.13397
2.12458
2.11548
2.10689
2.09856
2.0902
2.08186
2.0736
2.06572
2.05827
2.05155
2.04511
2.0394
2.03407
2.02941
2.02497
2.02089
2.01678
2.0132
2.0098
2.00643
2.00286
1.99887
1.99441
1.98947
1.98382
1.97569
1.97191
1.97668
1.77034
1.85273
1.9665
2.16247
2.35929
2.48073
2.47295
2.50799
2.62032
2.74711
2.81939
2.86438
2.86408
2.8505
2.85633
2.94239
2.97691
2.97541
2.97731
2.96909
2.96071
2.91299
2.9012
2.91212
2.91475
2.91439
2.91038
2.90652
2.89879
2.89399
2.9018
2.89932
2.93614
2.96682
3.03013
3.07493
3.06703
3.04718
2.99585
2.92219
2.81621
2.72316
2.64851
2.58221
2.51564
2.45419
2.38876
2.34972
2.33506
2.30079
2.2714
2.25245
2.23071
2.2094
2.18653
2.17121
2.15741
2.14416
2.13004
2.11332
2.09812
2.08766
2.07782
2.06773
2.05726
2.04705
2.03843
2.03039
2.02211
2.0134
2.00423
1.99524
1.987
1.97954
1.97243
1.96537
1.9582
1.95099
1.94386
1.93765
1.93181
1.92596
1.92009
1.91415
1.90831
1.90294
1.89781
1.89348
1.88929
1.88569
1.88279
1.88001
1.87719
1.87405
1.87059
1.86673
1.86215
1.85566
1.85113
1.85616
1.75413
1.76285
1.81387
1.91815
2.05373
2.22823
2.26427
2.21698
2.30948
2.4385
2.55249
2.65567
2.72502
2.72596
2.7204
2.73627
2.78081
2.83345
2.87547
2.90973
2.92471
2.91964
2.90721
2.9027
2.8973
2.8952
2.90277
2.90181
2.89765
2.89095
2.88701
2.90772
2.9346
2.97341
2.97204
2.94122
2.86154
2.74834
2.61751
2.55112
2.46557
2.4086
2.34469
2.29577
2.23338
2.19989
2.1627
2.14605
2.1358
2.11084
2.10014
2.09178
2.07839
2.06554
2.05244
2.04519
2.03647
2.02517
2.01276
2.00293
1.9934
1.9859
1.97764
1.96747
1.9584
1.95186
1.94592
1.93929
1.93169
1.92316
1.915
1.9084
1.90234
1.896
1.88917
1.88185
1.87403
1.86722
1.86185
1.8567
1.85149
1.84609
1.84052
1.83489
1.82935
1.8242
1.81915
1.81448
1.80984
1.80584
1.80252
1.79947
1.79644
1.79317
1.78973
1.78603
1.78179
1.77616
1.77138
1.77672
1.79047
1.7351
1.75404
1.80347
1.87181
1.95617
2.04118
2.01794
2.09084
2.20503
2.30435
2.38586
2.47159
2.50608
2.51201
2.53444
2.57718
2.63381
2.68142
2.73196
2.7768
2.80967
2.82922
2.83995
2.85203
2.85388
2.86067
2.86171
2.86559
2.87566
2.88219
2.89835
2.8882
2.85314
2.7839
2.6969
2.56899
2.44056
2.31625
2.24793
2.17608
2.1519
2.11669
2.07957
2.0377
2.03416
2.02276
2.00962
1.98865
1.98317
1.99309
1.98619
1.97653
1.9711
1.96449
1.95869
1.95205
1.94573
1.93853
1.93262
1.92459
1.91482
1.90963
1.90372
1.89715
1.89068
1.8839
1.87707
1.87122
1.86581
1.86032
1.85438
1.84776
1.8403
1.83239
1.82589
1.82039
1.81489
1.80927
1.80347
1.798
1.79258
1.7872
1.78181
1.77645
1.77105
1.76559
1.76075
1.75601
1.75193
1.74864
1.74539
1.74209
1.73858
1.73487
1.73089
1.72639
1.72071
1.7148
1.7199
1.8543
1.75739
1.72832
1.73393
1.76645
1.8014
1.8373
1.83316
1.85292
1.92194
2.02194
2.09898
2.17726
2.24387
2.2851
2.30067
2.3434
2.39594
2.45352
2.50416
2.55818
2.60341
2.64557
2.6778
2.7136
2.73362
2.7639
2.77569
2.79421
2.82699
2.82521
2.81351
2.78303
2.69751
2.54385
2.36169
2.21459
2.08568
2.0216
1.95496
1.92875
1.92501
1.91852
1.92461
1.93509
1.95481
1.94351
1.92456
1.89736
1.89707
1.90009
1.90395
1.91599
1.91164
1.90822
1.90214
1.89544
1.89366
1.89062
1.8863
1.8815
1.87402
1.86975
1.86522
1.85905
1.85237
1.84751
1.8429
1.83798
1.83248
1.82626
1.81945
1.81304
1.80699
1.80102
1.79501
1.78874
1.78206
1.77573
1.77039
1.76517
1.75983
1.75434
1.7487
1.74289
1.7373
1.73252
1.72796
1.72341
1.7192
1.71548
1.71171
1.7078
1.7037
1.69944
1.69498
1.69006
1.68403
1.67759
1.68266
1.90567
1.80579
1.7391
1.72639
1.73859
1.73965
1.74734
1.72342
1.72311
1.74332
1.79993
1.87491
1.94024
1.99304
2.05087
2.05522
2.07396
2.12279
2.18629
2.24239
2.31495
2.35764
2.40584
2.44727
2.50078
2.53805
2.58671
2.61655
2.6563
2.71318
2.73447
2.68595
2.58906
2.42686
2.20269
2.06111
1.94816
1.86006
1.8122
1.75974
1.75046
1.73737
1.7357
1.74767
1.76572
1.79758
1.84106
1.898
1.88751
1.86729
1.84569
1.84427
1.8515
1.86454
1.87801
1.87246
1.86892
1.86452
1.86197
1.85987
1.86009
1.85767
1.8488
1.84302
1.83838
1.83438
1.83066
1.82639
1.82092
1.81465
1.8084
1.80254
1.79658
1.79023
1.78314
1.77585
1.77038
1.76509
1.7597
1.75404
1.74803
1.74184
1.73604
1.73053
1.72529
1.72051
1.7158
1.71099
1.70604
1.70089
1.69618
1.69175
1.68732
1.68285
1.67833
1.67365
1.66854
1.66233
1.65557
1.66065
1.92568
1.85842
1.77709
1.75046
1.72262
1.72081
1.71157
1.68521
1.65136
1.63984
1.65713
1.69748
1.74214
1.78058
1.82531
1.83746
1.84967
1.88532
1.93552
1.99002
2.04341
2.09755
2.14806
2.19087
2.2385
2.29025
2.34885
2.40409
2.51654
2.58979
2.57213
2.48232
2.339
2.12619
1.94139
1.85194
1.78566
1.73018
1.69345
1.6554
1.63473
1.61443
1.61067
1.6191
1.62934
1.65802
1.69713
1.74264
1.80948
1.89985
1.8728
1.83011
1.83018
1.83279
1.83942
1.85027
1.85754
1.8533
1.85099
1.84464
1.84716
1.84599
1.84069
1.83325
1.82958
1.8257
1.8212
1.81663
1.81182
1.80639
1.80043
1.794
1.78706
1.78057
1.7756
1.77056
1.76534
1.7596
1.75307
1.74607
1.73997
1.73445
1.72915
1.72393
1.7188
1.71366
1.70838
1.70293
1.69755
1.69237
1.68783
1.68334
1.67873
1.67398
1.66912
1.66408
1.65867
1.65225
1.64538
1.65076
1.92402
1.87457
1.81714
1.78632
1.73775
1.72876
1.71178
1.68211
1.64734
1.60731
1.60147
1.61358
1.63943
1.65781
1.67517
1.69123
1.70104
1.71406
1.7379
1.77239
1.81226
1.85463
1.89749
1.94037
1.98372
2.03134
2.09589
2.17079
2.32544
2.48291
2.37726
2.25626
2.09594
1.89945
1.81016
1.74106
1.69531
1.65256
1.61645
1.59031
1.57139
1.55114
1.54291
1.54501
1.54696
1.56253
1.58274
1.61903
1.67909
1.74776
1.83128
1.89743
1.8689
1.84149
1.818
1.82263
1.83088
1.84261
1.84338
1.8401
1.83535
1.83436
1.83109
1.82461
1.82261
1.82058
1.81666
1.81049
1.80373
1.79752
1.7921
1.78673
1.78158
1.77633
1.77118
1.766
1.76039
1.75424
1.7479
1.74222
1.73674
1.73127
1.72583
1.72033
1.7147
1.7093
1.70431
1.69933
1.69435
1.68943
1.68463
1.67992
1.67518
1.67039
1.66556
1.6606
1.65527
1.64891
1.64193
1.64741
1.91737
1.87668
1.83554
1.80874
1.76801
1.74859
1.723
1.69071
1.6546
1.61672
1.57939
1.57963
1.58887
1.59765
1.60554
1.61342
1.60889
1.60951
1.61367
1.62664
1.65113
1.68276
1.71352
1.74644
1.78308
1.82964
1.89574
2.01877
2.30765
2.27827
2.18525
2.07297
1.92943
1.8055
1.73523
1.68209
1.64223
1.6033
1.57206
1.54783
1.52844
1.51552
1.515
1.51071
1.5055
1.51026
1.5194
1.54122
1.57235
1.61178
1.67554
1.76182
1.8949
1.87991
1.82826
1.8245
1.81322
1.81522
1.81925
1.82569
1.82466
1.82391
1.82149
1.81435
1.81148
1.80886
1.80538
1.79979
1.79331
1.78712
1.78192
1.77666
1.77116
1.76541
1.75952
1.75463
1.74969
1.74457
1.73934
1.73405
1.72891
1.72376
1.7185
1.71313
1.70795
1.70344
1.69899
1.69447
1.68988
1.68523
1.68054
1.67581
1.67102
1.66619
1.66136
1.65639
1.65104
1.64461
1.63748
1.64305
1.90415
1.86949
1.83434
1.81041
1.78548
1.76578
1.73865
1.70685
1.67072
1.63261
1.59434
1.57034
1.57024
1.57265
1.57538
1.57359
1.56979
1.56283
1.55077
1.55312
1.56248
1.57987
1.60075
1.62326
1.65469
1.70011
1.78329
1.95031
2.24985
2.10238
2.03369
1.94558
1.83157
1.77133
1.71883
1.67531
1.6312
1.59155
1.56452
1.53798
1.51333
1.49782
1.49323
1.49046
1.49138
1.49633
1.49835
1.4986
1.50632
1.52359
1.5608
1.61774
1.69274
1.78359
1.90128
1.86549
1.82933
1.78903
1.79182
1.79598
1.80806
1.80353
1.80178
1.79825
1.79031
1.78738
1.78405
1.7799
1.77416
1.76808
1.76195
1.7565
1.75138
1.746
1.74017
1.73478
1.72998
1.72521
1.72057
1.71591
1.71118
1.70614
1.70151
1.69732
1.69348
1.68977
1.68596
1.68199
1.67785
1.67353
1.66908
1.6646
1.66019
1.65579
1.65136
1.64674
1.64166
1.63541
1.62852
1.63446
1.8884
1.85859
1.83125
1.80594
1.78783
1.77337
1.75397
1.72785
1.69374
1.6541
1.61466
1.58673
1.56546
1.56126
1.56376
1.56175
1.55401
1.53953
1.53047
1.52144
1.52003
1.52548
1.54131
1.56056
1.59324
1.65927
1.79088
2.09135
2.08887
2.00755
1.95312
1.88254
1.80779
1.76181
1.71893
1.67647
1.63665
1.60953
1.5817
1.55381
1.54142
1.52779
1.51108
1.49359
1.48821
1.48921
1.48637
1.48052
1.48231
1.48628
1.49881
1.52003
1.55801
1.61799
1.69693
1.81827
1.85526
1.80862
1.79407
1.76648
1.7712
1.77153
1.77777
1.77587
1.77395
1.76882
1.76347
1.75952
1.75537
1.75092
1.74597
1.74053
1.73358
1.72805
1.7235
1.71929
1.71528
1.71118
1.70686
1.70222
1.69742
1.69251
1.68765
1.68313
1.67892
1.6748
1.67062
1.66634
1.66199
1.65771
1.65354
1.64954
1.64561
1.64169
1.63769
1.63348
1.62873
1.62273
1.61603
1.62237
1.87691
1.8459
1.82242
1.79803
1.78068
1.77084
1.75674
1.73681
1.71111
1.67866
1.64212
1.61008
1.58374
1.56294
1.56027
1.5584
1.55238
1.54277
1.52919
1.51321
1.49692
1.50587
1.51867
1.53797
1.5848
1.69251
1.87803
2.08312
1.97497
1.94534
1.90216
1.85306
1.80983
1.77261
1.73547
1.70004
1.67041
1.64314
1.61549
1.59622
1.5769
1.55551
1.53224
1.5252
1.51602
1.50045
1.48099
1.46975
1.47152
1.47743
1.47245
1.4686
1.47804
1.49895
1.54438
1.61544
1.70429
1.85501
1.83531
1.7847
1.76655
1.74766
1.7519
1.75474
1.75669
1.75566
1.75145
1.74617
1.7421
1.73727
1.73366
1.72986
1.72505
1.71905
1.71531
1.71075
1.70556
1.70038
1.69524
1.68999
1.68464
1.67925
1.6742
1.66941
1.66543
1.66207
1.65879
1.65544
1.65201
1.6484
1.64453
1.64035
1.63581
1.63099
1.62589
1.62059
1.61496
1.60842
1.60147
1.60821
1.87255
1.83551
1.81018
1.79065
1.77152
1.76266
1.75349
1.7374
1.71699
1.6923
1.66446
1.63234
1.61004
1.58074
1.56451
1.56185
1.55758
1.54757
1.53325
1.51875
1.50056
1.50779
1.52068
1.55295
1.63554
1.8001
2.07505
2.0054
1.9359
1.89915
1.87255
1.84736
1.81948
1.7887
1.75525
1.723
1.69647
1.66926
1.64626
1.62673
1.60419
1.58038
1.56745
1.55241
1.5336
1.51173
1.50017
1.48772
1.46885
1.45902
1.45064
1.44646
1.44138
1.4429
1.46231
1.49527
1.55469
1.6385
1.73997
1.8531
1.817
1.78553
1.73019
1.73489
1.73905
1.7462
1.74409
1.73971
1.73554
1.73185
1.7247
1.72185
1.71898
1.7151
1.70869
1.70214
1.69879
1.69557
1.69204
1.68798
1.68315
1.67736
1.67075
1.66621
1.66218
1.65822
1.65424
1.6502
1.6461
1.64195
1.63774
1.6334
1.62885
1.62411
1.61913
1.61398
1.60842
1.60176
1.59401
1.60033
1.87451
1.83491
1.80527
1.78263
1.76352
1.75149
1.74518
1.73459
1.71847
1.6974
1.67224
1.64488
1.62319
1.60249
1.57719
1.56916
1.56561
1.55558
1.54248
1.52368
1.51884
1.52527
1.54163
1.60537
1.74746
2.03959
1.99229
1.9098
1.90027
1.88577
1.86937
1.85029
1.82838
1.80432
1.77796
1.74989
1.72458
1.6983
1.6758
1.6531
1.62745
1.60986
1.59216
1.57089
1.54703
1.53464
1.51804
1.49887
1.48005
1.4606
1.44422
1.43104
1.42742
1.4278
1.43553
1.44045
1.46327
1.5074
1.57641
1.66999
1.81687
1.81195
1.75855
1.75018
1.71814
1.72206
1.72623
1.73301
1.73183
1.72903
1.72354
1.71451
1.71066
1.70801
1.70464
1.70038
1.69682
1.69314
1.68894
1.68429
1.67927
1.67389
1.66779
1.66224
1.6584
1.65438
1.65006
1.64538
1.64067
1.6363
1.63196
1.62765
1.62325
1.61867
1.6138
1.60861
1.60289
1.59607
1.58804
1.59477
1.87981
1.83787
1.80109
1.78183
1.75795
1.7424
1.73443
1.72637
1.71407
1.69691
1.67541
1.65278
1.62921
1.61357
1.58946
1.5753
1.57371
1.56524
1.54987
1.53778
1.54385
1.55467
1.60442
1.72129
1.9856
1.97289
1.89985
1.89607
1.89001
1.88165
1.87075
1.85688
1.83976
1.81929
1.79608
1.77145
1.74649
1.72114
1.69771
1.67214
1.64894
1.63094
1.6087
1.58455
1.56782
1.54903
1.53
1.5136
1.49632
1.4769
1.46376
1.45078
1.44105
1.42901
1.42767
1.42238
1.42841
1.44333
1.47056
1.51732
1.58984
1.68261
1.82394
1.79687
1.76207
1.72787
1.71044
1.71778
1.71794
1.7203
1.71811
1.71124
1.70028
1.69412
1.69361
1.69174
1.68934
1.68665
1.68348
1.67932
1.67397
1.66782
1.66183
1.65666
1.65277
1.64891
1.64496
1.64094
1.63687
1.63267
1.62814
1.62319
1.61783
1.61222
1.60653
1.60086
1.59503
1.58836
1.58081
1.58819
1.88775
1.84539
1.80434
1.78394
1.76231
1.73844
1.7315
1.72281
1.70952
1.69336
1.67532
1.65706
1.63618
1.61794
1.59393
1.58177
1.57756
1.56285
1.564
1.56696
1.57283
1.61337
1.71758
1.95284
1.98287
1.9111
1.90576
1.89514
1.8876
1.88228
1.87503
1.86452
1.84929
1.83056
1.80852
1.78589
1.76219
1.73796
1.71338
1.68763
1.66757
1.64387
1.61734
1.60141
1.58029
1.55659
1.54327
1.52789
1.51044
1.49273
1.47942
1.46344
1.45281
1.43979
1.42161
1.41923
1.41814
1.42059
1.42164
1.43435
1.46752
1.52521
1.61382
1.72222
1.79538
1.7533
1.74006
1.69845
1.70054
1.70657
1.70648
1.70546
1.70155
1.69494
1.68568
1.68497
1.6842
1.68247
1.67988
1.67574
1.66962
1.66201
1.6547
1.65097
1.64746
1.64395
1.64045
1.63692
1.63323
1.62917
1.62452
1.61928
1.61362
1.60768
1.60171
1.59559
1.58932
1.58215
1.57392
1.58149
1.90479
1.85622
1.81049
1.78098
1.7661
1.74059
1.72937
1.72332
1.70975
1.69217
1.67218
1.65862
1.64085
1.62124
1.59696
1.58427
1.56819
1.57127
1.57839
1.58919
1.62521
1.71734
1.90382
2.01328
1.92819
1.91851
1.8985
1.88692
1.88388
1.87943
1.87315
1.86396
1.85113
1.83485
1.81532
1.7932
1.76999
1.7457
1.72217
1.70035
1.67804
1.65443
1.63549
1.61393
1.58964
1.57537
1.55981
1.54186
1.52227
1.50891
1.49373
1.4795
1.46469
1.45056
1.43608
1.42823
1.41412
1.41267
1.40803
1.40875
1.41049
1.43072
1.47544
1.54407
1.63373
1.78387
1.77734
1.73303
1.71759
1.68058
1.68529
1.69553
1.69563
1.69359
1.68822
1.67939
1.67686
1.67454
1.67155
1.66801
1.66339
1.65745
1.64999
1.64434
1.64122
1.63798
1.63461
1.63117
1.62766
1.62376
1.61917
1.61394
1.60833
1.60247
1.59663
1.59052
1.58405
1.57643
1.5675
1.5751
1.91136
1.87182
1.82656
1.78609
1.76846
1.74457
1.72606
1.72159
1.71155
1.69514
1.67329
1.65885
1.64467
1.62572
1.60272
1.57561
1.57098
1.58428
1.59657
1.62532
1.71068
1.86925
2.04053
1.94507
1.93188
1.90862
1.88702
1.88313
1.87798
1.87113
1.8633
1.85416
1.84345
1.83009
1.81405
1.79442
1.77271
1.74907
1.72716
1.70462
1.681
1.66279
1.64243
1.61886
1.60379
1.58819
1.57032
1.55
1.53401
1.51944
1.50345
1.48847
1.47221
1.45886
1.45086
1.44017
1.42825
1.41523
1.39856
1.3969
1.39141
1.3949
1.40541
1.43065
1.49007
1.56959
1.6684
1.79211
1.75602
1.72607
1.68415
1.66669
1.67117
1.6771
1.67642
1.67475
1.67143
1.66803
1.66393
1.66005
1.65583
1.65077
1.6448
1.63804
1.63447
1.63087
1.62686
1.62302
1.61936
1.61558
1.6113
1.60641
1.60125
1.59598
1.59069
1.58513
1.57881
1.57089
1.56128
1.56885
1.96845
1.89795
1.84495
1.79279
1.76934
1.75063
1.72527
1.72088
1.71275
1.69831
1.67683
1.66037
1.64869
1.63162
1.60905
1.57193
1.57949
1.59913
1.62553
1.70037
1.84993
2.06397
1.98499
1.95138
1.89994
1.88719
1.8848
1.87808
1.86938
1.85992
1.85008
1.84082
1.83103
1.8198
1.80656
1.79102
1.77304
1.75378
1.73233
1.71024
1.68903
1.66861
1.64721
1.6313
1.6143
1.59615
1.57786
1.56224
1.54543
1.52787
1.5111
1.49539
1.48095
1.46999
1.46037
1.44793
1.43432
1.42073
1.40923
1.39651
1.38161
1.38275
1.38176
1.38663
1.40748
1.44814
1.51305
1.60489
1.74615
1.75684
1.71004
1.69733
1.65635
1.65826
1.66782
1.66738
1.66586
1.66342
1.66036
1.65501
1.64797
1.63995
1.63568
1.63157
1.62767
1.624
1.62072
1.61776
1.6147
1.61117
1.60669
1.60154
1.59629
1.59101
1.58522
1.57893
1.57209
1.56397
1.55417
1.56174
1.96481
1.90917
1.86407
1.81099
1.7771
1.7576
1.72735
1.71714
1.71537
1.70327
1.68151
1.66244
1.65092
1.63468
1.61206
1.58933
1.60004
1.62025
1.68853
1.82914
2.0828
2.01758
1.96931
1.9075
1.88915
1.88601
1.87825
1.86814
1.8574
1.84641
1.83678
1.82829
1.82018
1.81131
1.80121
1.78902
1.77443
1.75779
1.73941
1.72012
1.70053
1.68043
1.66142
1.64294
1.62485
1.60829
1.59175
1.57451
1.55911
1.54307
1.52728
1.51067
1.4982
1.48653
1.47484
1.46208
1.44814
1.43348
1.42217
1.40944
1.39508
1.3762
1.37743
1.37018
1.3764
1.38871
1.41563
1.46196
1.53301
1.6173
1.7646
1.73466
1.69442
1.66806
1.6388
1.64245
1.64867
1.65288
1.65168
1.65012
1.64518
1.63718
1.62601
1.62401
1.62242
1.62012
1.61708
1.61329
1.60996
1.60635
1.60174
1.59576
1.59031
1.58492
1.57893
1.57216
1.56451
1.55567
1.54573
1.5535
2.03191
1.95184
1.8695
1.83222
1.79151
1.76821
1.73889
1.71478
1.71655
1.70904
1.6903
1.66365
1.65294
1.64231
1.62106
1.62306
1.63311
1.68348
1.81031
2.06753
2.0314
1.98078
1.91228
1.89478
1.88931
1.88085
1.87114
1.86121
1.85112
1.84057
1.83147
1.82341
1.8153
1.807
1.79785
1.78735
1.77511
1.76082
1.74488
1.7275
1.70926
1.69077
1.67175
1.65309
1.63555
1.61819
1.60131
1.58476
1.56885
1.5531
1.53718
1.52202
1.50771
1.49504
1.48243
1.47115
1.45936
1.44655
1.43238
1.41736
1.40092
1.38468
1.37442
1.36215
1.36354
1.36782
1.3718
1.38407
1.41535
1.4729
1.56049
1.67081
1.72416
1.6775
1.66297
1.62934
1.63064
1.63553
1.64136
1.64252
1.64087
1.63428
1.62568
1.61539
1.61408
1.613
1.61077
1.60753
1.60325
1.59905
1.59415
1.58748
1.58174
1.57603
1.56972
1.56275
1.55498
1.54603
1.5362
1.5442
2.21706
1.94234
1.901
1.84795
1.81354
1.78245
1.75547
1.71953
1.71538
1.71258
1.6987
1.67192
1.65198
1.65156
1.65054
1.65734
1.69882
1.80871
2.05557
2.0472
1.99903
1.92562
1.90755
1.90205
1.89285
1.88258
1.87109
1.86137
1.85143
1.84084
1.82958
1.82049
1.81177
1.80308
1.79424
1.78468
1.77393
1.76177
1.74786
1.73255
1.71624
1.69902
1.68133
1.66334
1.64584
1.62871
1.61198
1.59488
1.57787
1.56075
1.54492
1.53121
1.51758
1.50189
1.49059
1.47972
1.46638
1.45378
1.44023
1.4239
1.40628
1.3895
1.3813
1.37211
1.36487
1.35616
1.35678
1.35732
1.36298
1.39037
1.42846
1.49003
1.5772
1.712
1.6973
1.65461
1.63982
1.61795
1.6193
1.62377
1.62647
1.62582
1.62192
1.61422
1.6058
1.60307
1.60083
1.59749
1.59321
1.58861
1.5837
1.57707
1.57075
1.56484
1.5583
1.5508
1.54312
1.53481
1.52554
1.53378
2.42048
2.06576
1.90818
1.84932
1.81104
1.7805
1.75733
1.72698
1.71168
1.7135
1.70227
1.67947
1.66246
1.66923
1.68378
1.72408
1.82539
2.04151
2.07723
2.02502
1.94441
1.92701
1.92379
1.91414
1.90226
1.88933
1.87596
1.86429
1.85261
1.84087
1.82879
1.81829
1.80936
1.80032
1.79098
1.78128
1.77097
1.75976
1.74752
1.73405
1.71939
1.70385
1.6877
1.67081
1.65373
1.63683
1.62024
1.60314
1.58626
1.56828
1.5523
1.53656
1.52391
1.51045
1.49722
1.48314
1.47002
1.45688
1.4435
1.42928
1.41319
1.39604
1.38528
1.37638
1.36953
1.36123
1.34954
1.34809
1.34827
1.35
1.35907
1.3887
1.43809
1.51203
1.59958
1.69891
1.66833
1.6431
1.62333
1.60156
1.6042
1.60806
1.60687
1.60412
1.59609
1.5914
1.58838
1.5849
1.58005
1.57574
1.57105
1.56531
1.55798
1.55203
1.54543
1.53708
1.52886
1.52093
1.51276
1.52148
2.25336
2.24045
1.95098
1.88245
1.80718
1.78166
1.76013
1.73617
1.71186
1.70993
1.70558
1.68742
1.68809
1.69884
1.74315
1.84936
2.06336
2.10985
2.05139
1.96682
1.94288
1.93975
1.93
1.91762
1.90452
1.89135
1.87841
1.86547
1.85276
1.84014
1.8274
1.81574
1.8054
1.79594
1.78648
1.77667
1.76653
1.75599
1.7448
1.73277
1.71982
1.70597
1.69108
1.67567
1.65983
1.64357
1.62706
1.61046
1.59324
1.5757
1.55768
1.54174
1.52759
1.51632
1.50296
1.48832
1.47475
1.46026
1.44727
1.43321
1.41704
1.40271
1.39204
1.3849
1.37625
1.36683
1.35767
1.35009
1.33989
1.34159
1.34048
1.34287
1.35963
1.3965
1.45888
1.54272
1.68136
1.68055
1.63944
1.62667
1.60002
1.58803
1.58765
1.5894
1.58789
1.58369
1.57819
1.57257
1.5654
1.56191
1.55806
1.55295
1.54499
1.5391
1.53324
1.52582
1.51658
1.50808
1.50058
1.50886
1.56777
2.35904
2.15319
1.87681
1.83733
1.78491
1.76561
1.74528
1.72227
1.69697
1.70403
1.70934
1.71901
1.75957
1.86867
2.08663
2.14389
2.07928
1.99137
1.9598
1.9562
1.94678
1.93398
1.91944
1.9071
1.89476
1.88189
1.86863
1.85512
1.84139
1.82835
1.81551
1.80401
1.79354
1.7835
1.77346
1.76301
1.75215
1.7409
1.72928
1.71706
1.7042
1.69077
1.6766
1.66175
1.64622
1.63008
1.61332
1.59591
1.57771
1.55853
1.54139
1.52892
1.51723
1.50466
1.4912
1.47723
1.46309
1.4484
1.43388
1.41802
1.40751
1.39843
1.38968
1.38103
1.37224
1.36328
1.35408
1.34485
1.33069
1.33103
1.33081
1.33319
1.34078
1.36974
1.41537
1.49099
1.5824
1.68191
1.65489
1.62392
1.60338
1.56991
1.57085
1.57392
1.57144
1.56684
1.56157
1.55532
1.54689
1.544
1.53942
1.53302
1.52524
1.52033
1.51399
1.50516
1.49457
1.48854
1.49751
1.19722
1.76893
2.39052
2.05123
1.86768
1.80549
1.76027
1.74041
1.71474
1.69888
1.71158
1.7337
1.78168
1.89039
2.11375
2.18148
2.11173
2.01936
1.98463
1.98104
1.97055
1.9564
1.94035
1.92498
1.91215
1.89895
1.8853
1.87117
1.85664
1.84231
1.82806
1.81444
1.80154
1.78873
1.77728
1.76618
1.75503
1.74352
1.73164
1.7196
1.70744
1.69517
1.68248
1.66943
1.65585
1.64165
1.62685
1.61142
1.59525
1.57821
1.56039
1.54456
1.53104
1.51871
1.50608
1.49309
1.48008
1.46658
1.45277
1.43858
1.42211
1.41136
1.40153
1.39605
1.38948
1.3823
1.374
1.36406
1.35497
1.3471
1.33854
1.32513
1.32641
1.32974
1.33507
1.3522
1.39417
1.45083
1.52854
1.67124
1.6745
1.63146
1.615
1.58489
1.56146
1.55957
1.56143
1.55885
1.55392
1.54821
1.54121
1.53376
1.52653
1.51943
1.51247
1.50477
1.49589
1.48573
1.47771
1.48653
1.05137
1.3224
2.3004
2.25412
1.94988
1.85506
1.7752
1.74331
1.70406
1.70937
1.72896
1.78167
1.90465
2.13448
2.21393
2.14179
2.04811
2.00402
2.00275
1.99393
1.98037
1.96418
1.94451
1.92909
1.91476
1.9004
1.88565
1.8705
1.8551
1.83965
1.82459
1.80974
1.79507
1.78086
1.76712
1.75464
1.74238
1.73009
1.71804
1.7061
1.69413
1.68281
1.67138
1.65974
1.6477
1.63523
1.62224
1.60855
1.5939
1.57813
1.56144
1.54669
1.53261
1.52022
1.50803
1.49571
1.48309
1.47022
1.45701
1.44337
1.42899
1.41891
1.41325
1.40727
1.40084
1.39428
1.38723
1.38015
1.37263
1.3647
1.35665
1.34756
1.3316
1.32611
1.33125
1.33883
1.34942
1.37686
1.4248
1.499
1.58292
1.68791
1.6607
1.6225
1.60013
1.56421
1.55374
1.55631
1.55569
1.5527
1.54716
1.53877
1.52837
1.51801
1.51102
1.50344
1.49515
1.48525
1.4743
1.48174
1.00964
1.07911
1.44476
2.18376
2.07372
1.84732
1.80242
1.74664
1.71993
1.73364
1.78481
1.91308
2.15399
2.2213
2.15148
2.05858
2.00751
2.00817
2.00277
1.9917
1.97619
1.95815
1.93751
1.92144
1.90605
1.89064
1.87525
1.85977
1.8441
1.8284
1.81292
1.79755
1.78255
1.76785
1.75387
1.7412
1.72959
1.71792
1.70619
1.69422
1.68379
1.67344
1.66316
1.65279
1.64237
1.63171
1.62048
1.60833
1.59516
1.58104
1.56662
1.55368
1.54161
1.52978
1.51803
1.50626
1.49435
1.4822
1.46989
1.45771
1.4457
1.43569
1.42864
1.42238
1.41685
1.41103
1.40458
1.39822
1.39195
1.38627
1.38036
1.37362
1.36454
1.35369
1.34685
1.35265
1.35675
1.36595
1.38403
1.42819
1.48254
1.56377
1.70686
1.708
1.66474
1.63788
1.60502
1.56904
1.5637
1.56315
1.55831
1.55059
1.54086
1.52883
1.51863
1.50997
1.50042