/*--------------------------------*- C++ -*----------------------------------*\
| =========                 |                                                 |
| \\      /  F ield         | OpenFOAM: The Open Source CFD Toolbox           |
|  \\    /   O peration     | Version:  v2106                                 |
|   \\  /    A nd           | Website:  www.openfoam.com                      |
|    \\/     M anipulation  |                                                 |
\*---------------------------------------------------------------------------*/
FoamFile
{
    version     2.0;
    format      ascii;
    arch        "LSB;label=32;scalar=64";
    class       volVectorField;
    location    "14";
    object      U;
}
// * * * * * * * * * * * * * * * * * * * * * * * * * * * * * * * * * * * * * //

dimensions      [0 1 -1 0 0 0 0];

internalField   nonuniform List<vector> 
5250
(
(3 5.2196e-14 0)
(3 -6.72756e-13 0)
(3 -1.31566e-12 0)
(3 6.2839e-11 0)
(3 -3.98034e-10 0)
(3 -2.77693e-09 0)
(3 -3.94294e-09 0)
(3 1.43049e-08 0)
(3.00001 -3.40786e-08 0)
(2.99995 8.7791e-07 0)
(3.00051 -1.36326e-06 0)
(2.99901 4.87881e-05 0)
(3.0274 0.0001027 0)
(3.02357 0.00279216 0)
(2.48479 0.00757071 0)
(0.750561 0.0377374 0)
(0.500692 0.0179796 0)
(0.546111 0.0220343 0)
(0.487704 0.0242465 0)
(0.414146 0.0254994 0)
(0.359674 0.0298102 0)
(0.28683 0.029659 0)
(0.212537 0.0297345 0)
(0.131065 0.0339596 0)
(0.0479849 0.0405965 0)
(3 1.00773e-15 0)
(3 5.9201e-13 0)
(3 2.53483e-12 0)
(3 3.01902e-11 0)
(3 1.90521e-10 0)
(3 -3.40858e-09 0)
(3 1.0156e-08 0)
(3 -1.09238e-07 0)
(3.00001 3.36378e-07 0)
(2.99994 -3.71881e-06 0)
(3.00058 1.34625e-05 0)
(2.99855 -4.93646e-05 0)
(3.0297 0.00113421 0)
(3.02637 0.0098135 0)
(2.49815 0.0260349 0)
(0.771493 0.106598 0)
(0.488418 0.0462243 0)
(0.542776 0.0590792 0)
(0.48261 0.0606068 0)
(0.405836 0.0671305 0)
(0.354938 0.0748691 0)
(0.281722 0.086318 0)
(0.204354 0.0973495 0)
(0.124292 0.101689 0)
(0.0427546 0.108146 0)
(3 5.45995e-15 0)
(3 1.17369e-12 0)
(3 4.51491e-12 0)
(3 6.65392e-11 0)
(3 6.05208e-10 0)
(3 -4.53351e-10 0)
(3 7.45058e-08 0)
(3 -1.18507e-07 0)
(3 1.28891e-06 0)
(3.00001 -2.19181e-06 0)
(3.00017 -9.93581e-06 0)
(3.00055 0.000247632 0)
(3.01658 -0.0122758 0)
(3.03117 0.01901 0)
(2.52355 0.0490619 0)
(0.81128 0.189846 0)
(0.462685 0.0838369 0)
(0.537053 0.102976 0)
(0.473306 0.111842 0)
(0.396394 0.1165 0)
(0.344223 0.131823 0)
(0.270785 0.148008 0)
(0.201989 0.15739 0)
(0.125266 0.166406 0)
(0.0427355 0.178245 0)
(3 3.0043e-14 0)
(3 9.95291e-15 0)
(3 2.26936e-13 0)
(3 9.64399e-12 0)
(3 -3.71087e-10 0)
(3 6.48196e-10 0)
(3 4.32633e-10 0)
(3 4.23097e-08 0)
(3 3.68645e-07 0)
(3.00001 3.39685e-06 0)
(3.00011 2.65035e-05 0)
(3.00083 0.000367782 0)
(3.01064 0.000566224 0)
(3.04433 0.0249363 0)
(2.56913 0.0687838 0)
(0.879953 0.279239 0)
(0.422653 0.113093 0)
(0.525974 0.141401 0)
(0.459477 0.150448 0)
(0.387676 0.162001 0)
(0.339624 0.178814 0)
(0.272059 0.200615 0)
(0.208333 0.216983 0)
(0.128535 0.234395 0)
(0.0450568 0.249085 0)
(3 1.90198e-13 0)
(3 -1.41168e-13 0)
(3 2.23921e-12 0)
(3 -3.72224e-11 0)
(3 1.41423e-10 0)
(3 2.14827e-11 0)
(3 9.54129e-09 0)
(3 2.93168e-08 0)
(3 5.44668e-07 0)
(3.00001 3.51038e-06 0)
(3.00009 3.29196e-05 0)
(3.00076 0.000369102 0)
(3.0088 0.00189284 0)
(3.05617 0.0303811 0)
(2.63414 0.0930339 0)
(1.00105 0.386416 0)
(0.373617 0.155772 0)
(0.51825 0.181236 0)
(0.444534 0.192908 0)
(0.379232 0.206001 0)
(0.337291 0.226891 0)
(0.278016 0.252119 0)
(0.209794 0.27583 0)
(0.133567 0.302408 0)
(0.0428932 0.324023 0)
(3 9.11234e-15 0)
(3 1.25032e-13 0)
(3 6.30649e-13 0)
(3 5.94856e-12 0)
(3 8.69888e-11 0)
(3 1.66944e-10 0)
(3 8.65678e-09 0)
(3 4.77566e-10 0)
(3 7.015e-07 0)
(3.00001 -4.22311e-07 0)
(3.00005 5.15209e-05 0)
(3.0008 0.00013149 0)
(3.00472 0.00350838 0)
(3.06838 0.0306014 0)
(2.72763 0.0859686 0)
(1.21906 0.492643 0)
(0.350462 0.203936 0)
(0.527289 0.219763 0)
(0.4487 0.230572 0)
(0.378619 0.245142 0)
(0.343231 0.264968 0)
(0.281687 0.307349 0)
(0.213989 0.340471 0)
(0.1334 0.377143 0)
(0.0513914 0.399652 0)
(3 -6.86931e-14 0)
(3 7.7789e-14 0)
(3 -1.9666e-13 0)
(3 -1.56717e-11 0)
(3 1.76463e-10 0)
(3 -1.74593e-10 0)
(3 1.03673e-08 0)
(3 1.65961e-08 0)
(3 7.29544e-07 0)
(3.00001 1.83528e-07 0)
(3.00004 5.49907e-05 0)
(3.00062 -0.00017432 0)
(3.00232 0.00310497 0)
(3.06879 0.0256059 0)
(2.80933 0.0555574 0)
(1.56786 0.58462 0)
(0.362931 0.267342 0)
(0.551489 0.263497 0)
(0.471595 0.275928 0)
(0.385601 0.287478 0)
(0.356875 0.306785 0)
(0.291633 0.359452 0)
(0.237891 0.398334 0)
(0.154423 0.442899 0)
(0.0701468 0.486997 0)
(3 -3.37356e-14 0)
(3 1.78725e-13 0)
(3 -1.27924e-12 0)
(3 4.74826e-12 0)
(3 -8.32974e-11 0)
(3 -2.01911e-10 0)
(3 1.01286e-08 0)
(3 2.81583e-08 0)
(3 5.94402e-07 0)
(3.00001 3.04937e-06 0)
(2.99998 3.81468e-05 0)
(3.0008 0.000267123 0)
(3.00033 0.00250895 0)
(3.0652 0.0206277 0)
(2.87229 0.0276044 0)
(2.00305 0.609824 0)
(0.444294 0.375955 0)
(0.602591 0.326649 0)
(0.526002 0.329011 0)
(0.415352 0.338199 0)
(0.391523 0.344847 0)
(0.310577 0.414983 0)
(0.262442 0.467389 0)
(0.167612 0.530457 0)
(0.0729045 0.594637 0)
(3 1.91118e-14 0)
(3 1.20292e-13 0)
(3 1.96407e-12 0)
(3 1.4281e-11 0)
(3 -9.67601e-11 0)
(3 1.86729e-10 0)
(3 5.29124e-09 0)
(3 1.86418e-08 0)
(3 3.00998e-07 0)
(3.00002 1.93198e-06 0)
(2.99993 2.23481e-05 0)
(3.00092 0.000181376 0)
(2.99904 0.00178733 0)
(3.05706 0.0164695 0)
(2.91793 0.0366068 0)
(2.22081 0.50437 0)
(0.587509 0.464246 0)
(0.665874 0.406064 0)
(0.599867 0.398621 0)
(0.487971 0.39278 0)
(0.439569 0.396035 0)
(0.353426 0.470293 0)
(0.320617 0.5272 0)
(0.222772 0.606629 0)
(0.147606 0.719953 0)
(3 3.34302e-14 0)
(3 4.42724e-16 0)
(3 1.81047e-12 0)
(3 6.50721e-12 0)
(3 -4.70075e-10 0)
(3 7.69418e-10 0)
(3 1.35367e-09 0)
(3 2.75784e-08 0)
(3 1.86494e-07 0)
(3.00002 2.1024e-06 0)
(2.99993 1.70531e-05 0)
(3.00081 0.000171021 0)
(2.99851 0.00150158 0)
(3.04614 0.0144251 0)
(2.96754 0.0613208 0)
(2.37948 0.395514 0)
(0.685949 0.54525 0)
(0.727072 0.47734 0)
(0.683046 0.464641 0)
(0.581031 0.472778 0)
(0.503377 0.466473 0)
(0.419916 0.531167 0)
(0.364718 0.608907 0)
(0.297709 0.715703 0)
(0.10184 0.954533 0)
(3 1.92994e-14 0)
(3 1.98076e-14 0)
(3 1.42373e-12 0)
(3 6.48322e-12 0)
(3 9.84277e-11 0)
(3 5.76985e-10 0)
(3 -3.20673e-09 0)
(3 3.26951e-08 0)
(3 -1.97345e-08 0)
(3.00002 2.01308e-06 0)
(2.99993 5.92676e-06 0)
(3.00069 0.000142386 0)
(2.99834 0.000865369 0)
(3.03634 0.0118384 0)
(3.0114 0.0691665 0)
(2.5234 0.315665 0)
(0.829687 0.594113 0)
(0.711438 0.496222 0)
(0.721691 0.520897 0)
(0.672655 0.541994 0)
(0.591944 0.541894 0)
(0.508605 0.598522 0)
(0.453066 0.682153 0)
(0.47973 0.807804 0)
(0.42112 1.13572 0)
(3 1.6935e-14 0)
(3 -1.14433e-14 0)
(3 1.24777e-12 0)
(3 4.30364e-12 0)
(3 8.0358e-11 0)
(3 6.16233e-10 0)
(3 -1.38811e-09 0)
(3 5.55545e-08 0)
(3 -9.22824e-08 0)
(3 2.24024e-06 0)
(3.00002 -4.07758e-06 0)
(3.00009 0.000114725 0)
(3.00125 0.000948031 0)
(3.01345 -0.0015224 0)
(3.04605 0.0701075 0)
(2.66449 0.272255 0)
(1.04574 0.669555 0)
(0.668828 0.507258 0)
(0.729803 0.530035 0)
(0.732326 0.62158 0)
(0.690783 0.621816 0)
(0.611313 0.67092 0)
(0.576143 0.736637 0)
(0.686473 0.844344 0)
(0.681662 1.02685 0)
(3 -1.76006e-16 0)
(3 1.59387e-14 0)
(3 1.1152e-13 0)
(3 2.23176e-12 0)
(3 1.03269e-11 0)
(3 1.57517e-10 0)
(3 2.17991e-09 0)
(3 5.16847e-09 0)
(3 -8.38794e-08 0)
(3 1.70679e-06 0)
(3.00001 -2.80861e-05 0)
(3.00003 0.000132407 0)
(3.00091 -0.0017894 0)
(3.00275 0.00715252 0)
(3.07367 0.0564112 0)
(2.81597 0.224208 0)
(1.41765 0.761604 0)
(0.604711 0.519094 0)
(0.71387 0.539897 0)
(0.738038 0.62218 0)
(0.752613 0.678467 0)
(0.725215 0.726848 0)
(0.704336 0.765158 0)
(0.781502 0.854231 0)
(0.877112 0.896472 0)
(3 -1.13142e-15 0)
(3 1.46138e-14 0)
(3 -8.50404e-14 0)
(3 1.58207e-12 0)
(3 -6.20524e-12 0)
(3 1.42542e-10 0)
(3 7.06923e-10 0)
(3 1.3798e-08 0)
(3 6.28768e-08 0)
(3 6.54896e-07 0)
(2.99999 6.03391e-06 0)
(3.00012 6.95432e-05 0)
(2.99999 0.000453833 0)
(3.00024 0.00397806 0)
(3.06692 0.0361571 0)
(2.935 0.131198 0)
(2.03557 0.843692 0)
(0.649939 0.580656 0)
(0.732037 0.560783 0)
(0.752474 0.617822 0)
(0.770729 0.681635 0)
(0.798305 0.754027 0)
(0.814579 0.788944 0)
(0.878242 0.837103 0)
(0.960045 0.86071 0)
(3 -1.66558e-15 0)
(3 1.74348e-14 0)
(3 2.48434e-13 0)
(3 1.00032e-13 0)
(3 1.62692e-11 0)
(3 9.77428e-11 0)
(3 -1.3597e-10 0)
(3 6.5949e-09 0)
(3 1.33473e-08 0)
(3 4.86461e-07 0)
(3.00001 1.49884e-06 0)
(2.99999 3.35797e-05 0)
(3.00075 0.000189545 0)
(2.99843 0.00230907 0)
(3.04987 0.0233709 0)
(2.98121 0.0901146 0)
(2.42386 0.720853 0)
(0.849019 0.684014 0)
(0.792524 0.602012 0)
(0.790593 0.624433 0)
(0.802278 0.675713 0)
(0.834842 0.744614 0)
(0.881632 0.793512 0)
(0.951072 0.843608 0)
(1.03211 0.846674 0)
(3 -1.14184e-16 0)
(3 2.21979e-14 0)
(3 8.52494e-14 0)
(3 1.27494e-12 0)
(3 1.34065e-11 0)
(3 4.88641e-11 0)
(3 6.87982e-10 0)
(3 -1.74589e-10 0)
(3 4.37435e-08 0)
(3 1.38402e-07 0)
(3.00001 2.32945e-06 0)
(2.99995 1.89406e-05 0)
(3.00058 0.000209102 0)
(2.99877 0.00148319 0)
(3.0321 0.0172967 0)
(3.0236 0.105039 0)
(2.67115 0.560368 0)
(1.14909 0.789306 0)
(0.845014 0.655651 0)
(0.844362 0.652798 0)
(0.847801 0.684356 0)
(0.874393 0.738777 0)
(0.928747 0.784174 0)
(1.0021 0.831755 0)
(1.09205 0.83782 0)
(3 2.53252e-15 0)
(3 1.42803e-14 0)
(3 -5.41479e-14 0)
(3 1.17617e-12 0)
(3 1.89769e-12 0)
(3 7.46969e-11 0)
(3 2.35704e-09 0)
(3 -2.03627e-09 0)
(3 5.21913e-08 0)
(3 -1.8304e-08 0)
(3 2.17176e-06 0)
(3.00001 3.74425e-06 0)
(3.00009 0.00012331 0)
(3.00069 0.000622946 0)
(3.00762 0.0081571 0)
(3.07028 0.0781278 0)
(2.8757 0.412007 0)
(1.62033 0.882397 0)
(0.851918 0.695351 0)
(0.87485 0.689503 0)
(0.889666 0.708831 0)
(0.909285 0.748892 0)
(0.958762 0.779925 0)
(1.02553 0.818006 0)
(1.1189 0.823998 0)
(3 4.66337e-16 0)
(3 2.5223e-15 0)
(3 3.04661e-14 0)
(3 1.87095e-13 0)
(3 2.44904e-12 0)
(3 1.72031e-11 0)
(3 1.80962e-10 0)
(3 1.19053e-09 0)
(3 1.35225e-08 0)
(3 1.06475e-07 0)
(3 1.02558e-06 0)
(3.00004 8.70752e-06 0)
(2.99985 7.90722e-05 0)
(3.00173 0.000681505 0)
(2.99612 0.00608318 0)
(3.09244 0.0502491 0)
(3.00914 0.240824 0)
(2.25541 0.960235 0)
(0.951835 0.765485 0)
(0.927469 0.719553 0)
(0.937025 0.719954 0)
(0.955901 0.742555 0)
(0.996887 0.765719 0)
(1.05667 0.794732 0)
(1.1399 0.804535 0)
(3 1.97471e-16 0)
(3 5.41263e-15 0)
(3 5.10105e-14 0)
(3 6.67356e-14 0)
(3 3.63901e-12 0)
(3 -1.56192e-11 0)
(3 1.82333e-10 0)
(3 1.35011e-09 0)
(3 6.58847e-10 0)
(3 4.39826e-08 0)
(3 5.22235e-08 0)
(3 2.03348e-06 0)
(3.00002 8.68044e-06 0)
(3.00027 3.42155e-05 0)
(3.00159 0.00486756 0)
(3.0252 -0.0849541 0)
(3.04811 0.171828 0)
(2.66867 0.794329 0)
(1.26139 0.857391 0)
(0.985378 0.760387 0)
(0.984265 0.740558 0)
(1.00053 0.752442 0)
(1.03402 0.767752 0)
(1.0832 0.788971 0)
(1.15798 0.792506 0)
(3 -2.82605e-17 0)
(3 9.18166e-16 0)
(3 1.0344e-14 0)
(3 8.92278e-14 0)
(3 8.06903e-13 0)
(3 6.99426e-12 0)
(3 5.55958e-11 0)
(3 4.91252e-10 0)
(3 4.13261e-09 0)
(3 3.90193e-08 0)
(3 3.22474e-07 0)
(3.00002 2.93121e-06 0)
(2.99998 2.04364e-05 0)
(2.99896 0.000219917 0)
(3.00729 0.00182966 0)
(2.97441 0.0161911 0)
(3.15576 0.118412 0)
(2.96192 0.56328 0)
(1.79676 0.927435 0)
(1.0284 0.795662 0)
(1.02985 0.763815 0)
(1.04568 0.768731 0)
(1.07456 0.7754 0)
(1.11548 0.78585 0)
(1.17634 0.787281 0)
(3 1.32748e-16 0)
(3 6.29805e-15 0)
(3 5.98182e-14 0)
(3 5.4051e-14 0)
(3 1.09626e-12 0)
(3 7.1039e-12 0)
(3 1.05187e-11 0)
(3 3.60159e-09 0)
(3 -1.77849e-09 0)
(3 6.77874e-08 0)
(3 2.60619e-08 0)
(3 3.22879e-06 0)
(3.00001 2.74877e-05 0)
(3.00004 9.28646e-06 0)
(3.00057 0.000191428 0)
(3.00298 0.00956613 0)
(3.04643 -0.221248 0)
(3.06419 0.371417 0)
(2.41236 1.03612 0)
(1.1758 0.872601 0)
(1.07867 0.823779 0)
(1.08443 0.788106 0)
(1.10826 0.785043 0)
(1.14621 0.787517 0)
(1.19894 0.784135 0)
(3 9.18358e-17 0)
(3 2.79398e-16 0)
(3 5.73634e-15 0)
(3 3.63283e-14 0)
(3 -1.72951e-13 0)
(3 3.20663e-12 0)
(3 1.41937e-11 0)
(3 6.73753e-11 0)
(3 1.22361e-09 0)
(3 1.11975e-08 0)
(3 8.70674e-08 0)
(3 7.38012e-07 0)
(3.00003 6.04177e-06 0)
(2.99999 4.17087e-05 0)
(2.99827 0.000405764 0)
(3.01486 0.00322316 0)
(2.941 0.027057 0)
(3.23541 0.216403 0)
(2.90565 0.805846 0)
(1.61915 0.9461 0)
(1.14905 0.849265 0)
(1.13573 0.802497 0)
(1.15124 0.797383 0)
(1.18135 0.793069 0)
(1.22443 0.787771 0)
(3 3.38748e-16 0)
(3 -1.1084e-15 0)
(3 1.04492e-14 0)
(3 1.08648e-14 0)
(3 3.85805e-13 0)
(3 2.78946e-12 0)
(3 2.21374e-11 0)
(3 1.92758e-10 0)
(3 1.67649e-09 0)
(3 2.42092e-09 0)
(3 6.68889e-08 0)
(3 2.11825e-07 0)
(3 3.76115e-06 0)
(3.00002 4.59348e-05 0)
(3.00006 -3.87988e-05 0)
(3.00087 0.000696768 0)
(3.00592 0.0182804 0)
(3.05952 -0.339447 0)
(3.08301 0.587304 0)
(2.25918 1.0618 0)
(1.21681 0.888991 0)
(1.17442 0.84691 0)
(1.19339 0.812713 0)
(1.2155 0.802457 0)
(1.2516 0.792649 0)
(3 -5.84166e-17 0)
(3 6.69911e-17 0)
(3 1.10683e-15 0)
(3 7.53284e-15 0)
(3 4.48782e-14 0)
(3 6.5642e-13 0)
(3 2.34373e-12 0)
(3 2.81451e-11 0)
(3 2.93808e-10 0)
(3 2.18659e-09 0)
(3 1.0714e-08 0)
(3 9.70002e-08 0)
(3 1.09413e-06 0)
(3.00004 9.78914e-06 0)
(2.99998 6.85472e-05 0)
(2.99767 0.000655841 0)
(3.01873 0.00526917 0)
(2.91106 0.0409252 0)
(3.318 0.351216 0)
(2.88803 0.986901 0)
(1.58656 0.969841 0)
(1.24585 0.90103 0)
(1.23465 0.837001 0)
(1.25149 0.825386 0)
(1.28092 0.810362 0)
(3 -5.13075e-17 0)
(3 -1.50215e-16 0)
(3 -3.75944e-16 0)
(3 6.31471e-15 0)
(3 9.68073e-15 0)
(3 2.95233e-13 0)
(3 1.44709e-12 0)
(3 1.65784e-11 0)
(3 1.40321e-10 0)
(3 4.42363e-10 0)
(3 7.37249e-09 0)
(3 7.59466e-08 0)
(3 2.50353e-07 0)
(3 6.44679e-06 0)
(3.00003 6.81374e-05 0)
(3.00008 -2.26428e-05 0)
(3.00139 0.000954138 0)
(3.00754 0.0183551 0)
(3.08204 -0.417168 0)
(3.09235 0.727428 0)
(2.19503 1.06051 0)
(1.32474 0.91586 0)
(1.27892 0.870536 0)
(1.29984 0.83432 0)
(1.31941 0.819222 0)
(3 -5.12945e-17 0)
(3 7.30944e-17 0)
(3 -3.66661e-17 0)
(3 2.26786e-15 0)
(3 1.25829e-14 0)
(3 9.5075e-14 0)
(3 7.59061e-13 0)
(3 5.74857e-12 0)
(3 5.50595e-11 0)
(3 4.51393e-11 0)
(3 3.10465e-09 0)
(3 2.44163e-08 0)
(3 2.17934e-07 0)
(3 1.78566e-06 0)
(3.00003 4.85943e-06 0)
(2.99997 9.65261e-05 0)
(2.99753 0.000913775 0)
(3.01725 0.00705768 0)
(2.90165 0.0537915 0)
(3.39125 0.470041 0)
(2.88002 1.07838 0)
(1.63862 0.991904 0)
(1.35849 0.94844 0)
(1.3371 0.870883 0)
(1.35151 0.855389 0)
(3 -5.13122e-17 0)
(3 -2.78058e-17 0)
(3 -2.29438e-16 0)
(3 5.91164e-16 0)
(3 3.62647e-15 0)
(3 4.73628e-14 0)
(3 1.63488e-13 0)
(3 3.51321e-12 0)
(3 6.84164e-12 0)
(3 1.32354e-10 0)
(3 8.73244e-10 0)
(3 2.71235e-09 0)
(3 1.29411e-07 0)
(3 2.1378e-07 0)
(3 8.3779e-06 0)
(3.00003 1.48796e-05 0)
(3.00009 -7.19442e-06 0)
(3.00176 0.000399883 0)
(3.00904 0.0194968 0)
(3.09241 -0.433765 0)
(3.11043 0.808352 0)
(2.22049 1.06423 0)
(1.43545 0.941224 0)
(1.38202 0.907681 0)
(1.39802 0.861466 0)
(3 2.55265e-16 0)
(3 6.87525e-16 0)
(3 -2.9904e-16 0)
(3 4.5426e-15 0)
(3 -3.96391e-15 0)
(3 1.89614e-14 0)
(3 1.43187e-14 0)
(3 1.14011e-12 0)
(3 5.65141e-12 0)
(3 5.59082e-11 0)
(3 4.45048e-10 0)
(3 4.87624e-10 0)
(3 3.13561e-08 0)
(3 1.342e-07 0)
(3 1.49077e-06 0)
(3.00003 1.66211e-05 0)
(2.99975 0.000124551 0)
(3.00243 0.00109255 0)
(2.99757 0.00741989 0)
(2.88596 0.0612021 0)
(3.42326 0.513498 0)
(2.92613 1.11479 0)
(1.74305 1.01666 0)
(1.45836 0.98496 0)
(1.42683 0.905928 0)
(3 5.59772e-17 0)
(3 1.74928e-17 0)
(3 9.1447e-17 0)
(3 1.34317e-16 0)
(3 9.73186e-16 0)
(3 1.07282e-15 0)
(3 6.77226e-14 0)
(3 5.82637e-13 0)
(3 6.1936e-12 0)
(3 4.11109e-11 0)
(3 4.50773e-11 0)
(3 1.48024e-09 0)
(3 -1.10048e-08 0)
(3 6.48336e-08 0)
(3 2.50758e-07 0)
(3 7.25165e-06 0)
(3.00002 -2.98986e-06 0)
(3.00018 0.000566436 0)
(3.00217 0.00185753 0)
(3.00581 0.010171 0)
(3.12413 -0.293277 0)
(3.18076 0.805867 0)
(2.36062 1.06112 0)
(1.53561 0.956613 0)
(1.47757 0.933368 0)
(3 -2.05064e-16 0)
(3 -1.97469e-16 0)
(3 -6.56504e-16 0)
(3 -5.73335e-16 0)
(3 -1.15795e-15 0)
(3 -1.87734e-16 0)
(3 1.36186e-14 0)
(3 7.92684e-14 0)
(3 1.36497e-12 0)
(3 4.32278e-12 0)
(3 3.21744e-11 0)
(3 4.36709e-10 0)
(3 3.30193e-09 0)
(3 1.51202e-08 0)
(3 2.71011e-07 0)
(3 2.32861e-06 0)
(3.00004 1.9032e-05 0)
(2.99982 0.000147171 0)
(3.00219 0.00119021 0)
(3.00147 0.00741813 0)
(2.90267 0.0614682 0)
(3.39718 0.455227 0)
(3.0031 1.09984 0)
(1.88068 1.03393 0)
(1.52754 1.01443 0)
(3 2.73471e-59 0)
(3 3.43324e-17 0)
(3 -1.31075e-16 0)
(3 -5.09389e-16 0)
(3 -6.66581e-16 0)
(3 -2.1583e-17 0)
(3 7.46546e-15 0)
(3 2.89287e-15 0)
(3 4.70226e-13 0)
(3 -3.07836e-12 0)
(3 2.75962e-11 0)
(3 9.66123e-11 0)
(3 -4.42808e-10 0)
(3 1.07544e-08 0)
(3 8.8305e-08 0)
(3 5.3721e-07 0)
(3 8.05605e-06 0)
(3.00005 4.39042e-05 0)
(3.00002 0.000549656 0)
(3.00317 0.00366265 0)
(3.00175 0.00616704 0)
(3.14213 -0.0591896 0)
(3.3 0.692129 0)
(2.56396 1.04012 0)
(1.64497 0.959127 0)
(3 -2.96283e-33 0)
(3 -1.53957e-16 0)
(3 -5.13189e-17 0)
(3 1.76765e-16 0)
(3 1.5806e-16 0)
(3 -6.16834e-17 0)
(3 7.85923e-16 0)
(3 3.81843e-14 0)
(3 -9.96703e-14 0)
(3 1.48608e-12 0)
(3 1.14643e-11 0)
(3 9.28781e-11 0)
(3 9.7633e-10 0)
(3 6.85294e-09 0)
(3 1.07323e-08 0)
(3 2.78324e-07 0)
(3.00001 1.65223e-06 0)
(2.99998 1.61997e-05 0)
(3.00025 0.000104276 0)
(2.99955 0.000991067 0)
(3.01075 0.00633644 0)
(2.96222 0.0549424 0)
(3.33617 0.404383 0)
(3.10073 1.03048 0)
(2.06903 1.04815 0)
(3 -1.02638e-16 0)
(3 -2.68644e-16 0)
(3 -2.46026e-16 0)
(3 -2.97364e-16 0)
(3 -3.63653e-16 0)
(3 -7.40014e-16 0)
(3 5.45476e-16 0)
(3 1.25664e-14 0)
(3 1.30394e-13 0)
(3 1.0019e-12 0)
(3 2.29171e-12 0)
(3 3.66666e-11 0)
(3 2.64472e-10 0)
(3 2.32294e-09 0)
(3 1.95751e-08 0)
(3 3.37121e-08 0)
(3 8.63314e-07 0)
(3 2.51065e-06 0)
(3.00005 4.32563e-05 0)
(2.99995 0.000184823 0)
(3.00251 0.00207053 0)
(3.00141 0.00898278 0)
(3.13085 0.0133539 0)
(3.3458 0.609759 0)
(2.7464 1.03829 0)
(3 -2.05276e-16 0)
(3 -9.24446e-33 0)
(3 -3.07913e-16 0)
(3 -4.45551e-16 0)
(3 -5.68158e-16 0)
(3 -6.34147e-16 0)
(3 -4.8233e-16 0)
(3 7.41646e-16 0)
(3 1.68651e-14 0)
(3 2.52635e-14 0)
(3 1.28001e-12 0)
(3 -1.76025e-13 0)
(3 7.18629e-11 0)
(3 2.67576e-10 0)
(3 3.32403e-09 0)
(3 1.72988e-08 0)
(3 2.2131e-07 0)
(3 1.09451e-06 0)
(2.99999 1.2765e-05 0)
(3.00016 7.60615e-05 0)
(2.99955 0.000746859 0)
(3.00789 0.00497709 0)
(2.97972 0.0438962 0)
(3.33422 0.328392 0)
(3.21572 0.922809 0)
(3 -6.04381e-17 0)
(3 1.53957e-16 0)
(3 2.56595e-16 0)
(3 2.56595e-16 0)
(3 2.72607e-16 0)
(3 2.75308e-16 0)
(3 7.40453e-16 0)
(3 2.01474e-15 0)
(3 5.72319e-15 0)
(3 4.99845e-14 0)
(3 2.7901e-13 0)
(3 3.37526e-12 0)
(3 1.7687e-11 0)
(3 1.89261e-10 0)
(3 7.83684e-11 0)
(3 9.35958e-09 0)
(3 1.77859e-09 0)
(3 4.87677e-07 0)
(3 6.0279e-07 0)
(3.00001 2.72691e-05 0)
(3.00012 4.66557e-05 0)
(3.00079 0.001173 0)
(3.00539 0.00697632 0)
(3.0974 0.0550339 0)
(3.38463 0.496022 0)
(3 5.13189e-17 0)
(3 4.704e-17 0)
(3 1.02638e-16 0)
(3 5.12619e-17 0)
(3 1.27712e-16 0)
(3 1.6031e-16 0)
(3 5.79586e-16 0)
(3 5.55577e-16 0)
(3 4.12708e-15 0)
(3 2.60712e-14 0)
(3 2.18361e-13 0)
(3 1.35189e-13 0)
(3 -2.9357e-12 0)
(3 4.508e-11 0)
(3 3.6443e-10 0)
(3 3.00477e-09 0)
(3 2.40463e-08 0)
(3 1.98528e-07 0)
(3 1.52666e-06 0)
(3.00001 2.70116e-06 0)
(3.00002 2.23354e-05 0)
(3.00009 0.00121294 0)
(3.00248 -0.0234344 0)
(3.00242 0.0349467 0)
(3.19223 0.0436707 0)
(3 1.53957e-16 0)
(3 1.53957e-16 0)
(3 -5.17357e-17 0)
(3 2.57051e-16 0)
(3 2.71154e-16 0)
(3 5.6978e-16 0)
(3 6.70212e-16 0)
(3 5.29085e-16 0)
(3 1.40095e-15 0)
(3 2.78006e-15 0)
(3 2.45851e-15 0)
(3 2.58466e-13 0)
(3 7.3289e-13 0)
(3 1.67148e-11 0)
(3 -2.44571e-10 0)
(3 7.63505e-10 0)
(3 2.82492e-09 0)
(3 4.09045e-08 0)
(3 2.47164e-07 0)
(3 2.27882e-06 0)
(3 1.44106e-05 0)
(2.9999 -0.000151551 0)
(2.99975 0.000977548 0)
(3.01365 0.00604926 0)
(2.99444 0.0549176 0)
(3 -1.02638e-16 0)
(3 -1.77898e-17 0)
(3 9.99909e-17 0)
(3 3.07914e-16 0)
(3 2.05275e-16 0)
(3 3.07935e-16 0)
(3 4.41702e-16 0)
(3 5.59101e-16 0)
(3 7.24045e-16 0)
(3 1.37719e-15 0)
(3 9.35693e-15 0)
(3 4.59913e-14 0)
(3 2.43745e-13 0)
(3 2.29947e-12 0)
(3 2.1732e-11 0)
(3 1.41444e-10 0)
(3 1.04956e-09 0)
(3 -7.89181e-09 0)
(3 5.41188e-08 0)
(3 -7.61274e-07 0)
(3 -9.78906e-06 0)
(2.99998 6.98668e-05 0)
(2.99999 -0.000915541 0)
(3.00099 -0.00163968 0)
(3.00217 0.00766618 0)
(3 5.13189e-17 0)
(3 6.32882e-17 0)
(3 4.02803e-17 0)
(3 6.12606e-17 0)
(3 -1.19919e-17 0)
(3 -1.20029e-16 0)
(3 -2.08857e-16 0)
(3 -1.90454e-16 0)
(3 -9.20964e-17 0)
(3 -2.46075e-16 0)
(3 5.74588e-16 0)
(3 1.23464e-14 0)
(3 1.0272e-13 0)
(3 5.28445e-13 0)
(3 -1.17663e-11 0)
(3 5.32185e-11 0)
(3 1.57476e-10 0)
(3 -1.01747e-09 0)
(3 1.61135e-08 0)
(3 5.19876e-08 0)
(3 7.37182e-07 0)
(3 -5.47422e-07 0)
(2.99997 -1.5981e-05 0)
(2.99995 0.000499784 0)
(3.00128 0.000275613 0)
(3 1.15108e-16 0)
(3 3.04321e-16 0)
(3 4.43392e-16 0)
(3 5.14654e-17 0)
(3 2.56811e-16 0)
(3 -2.56559e-16 0)
(3 -5.13282e-16 0)
(3 -6.16615e-16 0)
(3 -6.88449e-16 0)
(3 -6.25534e-16 0)
(3 -7.13951e-16 0)
(3 4.44844e-15 0)
(3 -3.36035e-14 0)
(3 5.71773e-13 0)
(3 -3.7829e-13 0)
(3 -1.2601e-11 0)
(3 1.43328e-10 0)
(3 -8.25941e-10 0)
(3 -4.61846e-09 0)
(3 -2.47432e-08 0)
(3 -1.98462e-07 0)
(3 1.08256e-07 0)
(3 -2.08077e-05 0)
(3.00016 1.17687e-05 0)
(2.99892 0.000636484 0)
(3 -5.13189e-17 0)
(3 -2.56595e-16 0)
(3 -2.56595e-16 0)
(3 -3.07913e-16 0)
(3 -2.56595e-16 0)
(3 -2.05238e-16 0)
(3 -2.04583e-16 0)
(3 -1.50569e-16 0)
(3 1.62119e-16 0)
(3 4.54217e-16 0)
(3 6.71793e-16 0)
(3 1.07255e-15 0)
(3 8.07178e-15 0)
(3 4.89412e-14 0)
(3 1.86257e-13 0)
(3 1.21091e-12 0)
(3 7.74214e-12 0)
(3 -1.50452e-11 0)
(3 2.99613e-10 0)
(3 4.84227e-09 0)
(3 5.66188e-09 0)
(3 2.92839e-07 0)
(3 1.4693e-06 0)
(2.99999 3.38357e-05 0)
(3.00013 -5.36339e-05 0)
(3 2.06767e-17 0)
(3 -1.25797e-16 0)
(3 1.02537e-16 0)
(3 3.07738e-16 0)
(3 4.21795e-16 0)
(3 3.43002e-16 0)
(3 4.83177e-16 0)
(3 4.08041e-16 0)
(3 4.29357e-16 0)
(3 3.14484e-16 0)
(3 2.49833e-16 0)
(3 2.19203e-16 0)
(3 -3.1738e-16 0)
(3 2.91367e-15 0)
(3 -5.91705e-14 0)
(3 -8.8429e-13 0)
(3 -5.0905e-13 0)
(3 -7.15451e-11 0)
(3 -1.38124e-10 0)
(3 -2.22651e-09 0)
(3 -1.6657e-08 0)
(3 -9.46141e-08 0)
(3 -2.66948e-07 0)
(3.00001 1.78149e-06 0)
(2.99999 4.60365e-05 0)
(3 1.53957e-16 0)
(3 2.90643e-16 0)
(3 1.82139e-16 0)
(3 1.02638e-16 0)
(3 1.53957e-16 0)
(3 9.72886e-17 0)
(3 2.10278e-16 0)
(3 3.08837e-16 0)
(3 3.08881e-16 0)
(3 3.1649e-16 0)
(3 3.80481e-16 0)
(3 4.54588e-16 0)
(3 -2.71892e-16 0)
(3 4.49223e-15 0)
(3 4.36688e-14 0)
(3 1.94305e-13 0)
(3 1.46457e-12 0)
(3 1.5722e-12 0)
(3 3.25474e-11 0)
(3 7.245e-10 0)
(3 -1.21443e-09 0)
(3 1.83252e-08 0)
(3 1.20394e-07 0)
(3 4.6156e-07 0)
(3 7.74953e-06 0)
(3 -1.02638e-16 0)
(3 -3.59232e-16 0)
(3 -3.77615e-16 0)
(3 -7.69784e-16 0)
(3 -7.69784e-16 0)
(3 -7.14689e-16 0)
(3 -6.19603e-16 0)
(3 -6.06177e-16 0)
(3 -6.25477e-16 0)
(3 -5.13189e-16 0)
(3 -5.6611e-16 0)
(3 -9.76723e-16 0)
(3 -2.85855e-16 0)
(3 -1.3055e-15 0)
(3 -2.53816e-15 0)
(3 -6.85041e-14 0)
(3 -4.08871e-13 0)
(3 -3.65635e-12 0)
(3 -9.34485e-12 0)
(3 -1.23159e-10 0)
(3 -8.50977e-10 0)
(3 5.90179e-10 0)
(3 1.70836e-08 0)
(3 1.27229e-07 0)
(3 2.63519e-06 0)
(3 -1.02638e-16 0)
(3 -1.53957e-16 0)
(3 -1.53957e-16 0)
(3 -5.13189e-17 0)
(3 -5.13189e-17 0)
(3 -1.02638e-16 0)
(3 -5.13189e-17 0)
(3 -5.64508e-16 0)
(3 -7.18465e-16 0)
(3 -8.72421e-16 0)
(3 -9.54039e-16 0)
(3 -9.52989e-16 0)
(3 -1.12991e-15 0)
(3 -4.74962e-16 0)
(3 -1.56649e-15 0)
(3 1.05906e-14 0)
(3 1.50492e-14 0)
(3 3.15244e-13 0)
(3 2.17882e-12 0)
(3 4.78791e-11 0)
(3 -5.23972e-11 0)
(3 1.01147e-09 0)
(3 1.10834e-08 0)
(3 5.10972e-08 0)
(3 5.4881e-07 0)
(3 5.13189e-17 0)
(3 -5.13189e-17 0)
(3 5.13189e-17 0)
(3 9.19145e-18 0)
(3 9.34464e-17 0)
(3 -1.02638e-16 0)
(3 -1.02638e-16 0)
(3 -1.02638e-16 0)
(3 -1.02638e-16 0)
(3 -3.07913e-16 0)
(3 -3.50331e-16 0)
(3 -2.48938e-16 0)
(3 -3.21789e-16 0)
(3 -3.15452e-16 0)
(3 -6.56993e-16 0)
(3 -2.91693e-15 0)
(3 -1.93289e-14 0)
(3 -9.5817e-14 0)
(3 -3.1175e-13 0)
(3 -1.42077e-12 0)
(3 -8.90129e-12 0)
(3 2.29354e-10 0)
(3 1.58612e-10 0)
(3 1.58849e-08 0)
(3 -1.10704e-07 0)
(3 5.13189e-17 0)
(3 1.55253e-16 0)
(3 5.00227e-17 0)
(3 6.51061e-17 0)
(3 3.75317e-17 0)
(3 -2.56595e-16 0)
(3 -5.13189e-16 0)
(3 -6.67146e-16 0)
(3 -8.72421e-16 0)
(3 -8.72421e-16 0)
(3 -8.72421e-16 0)
(3 -9.7034e-16 0)
(3 -8.72276e-16 0)
(3 -7.58101e-16 0)
(3 -1.00881e-15 0)
(3 -1.07751e-15 0)
(3 8.81741e-15 0)
(3 -9.34834e-14 0)
(3 6.93125e-13 0)
(3 -3.49624e-12 0)
(3 1.1628e-11 0)
(3 -2.1631e-10 0)
(3 9.60238e-11 0)
(3 5.7442e-09 0)
(3 3.24371e-08 0)
(3 5.13189e-17 0)
(3 2.05276e-16 0)
(3 3.07913e-16 0)
(3 3.07913e-16 0)
(3 4.10551e-16 0)
(3 4.6187e-16 0)
(3 4.6187e-16 0)
(3 4.56793e-16 0)
(3 5.76177e-16 0)
(3 2.44723e-16 0)
(3 2.99583e-16 0)
(3 -3.2029e-16 0)
(3 -6.26892e-16 0)
(3 -8.52252e-16 0)
(3 -8.81398e-16 0)
(3 -9.02331e-16 0)
(3 -7.18027e-15 0)
(3 -4.94604e-14 0)
(3 2.38048e-13 0)
(3 -2.41972e-12 0)
(3 5.82716e-12 0)
(3 -2.3771e-10 0)
(3 -9.99168e-10 0)
(3 1.18617e-09 0)
(3 -9.17192e-09 0)
(3 -5.13189e-17 0)
(3 -1.02638e-16 0)
(3 -3.07913e-16 0)
(3 -3.74676e-16 0)
(3 -4.49955e-16 0)
(3 -5.28839e-16 0)
(3 -2.92263e-16 0)
(3 -1.09732e-16 0)
(3 -5.13189e-17 0)
(3 -1.53957e-16 0)
(3 -2.05276e-16 0)
(3 -3.59232e-16 0)
(3 -3.59232e-16 0)
(3 -4.90214e-16 0)
(3 -5.82074e-16 0)
(3 -8.12785e-16 0)
(3 2.0932e-15 0)
(3 1.58869e-14 0)
(3 1.02065e-13 0)
(3 1.63197e-14 0)
(3 1.77608e-12 0)
(3 9.46738e-12 0)
(3 8.10083e-11 0)
(3 6.25506e-10 0)
(3 1.79937e-09 0)
(3 -1.02638e-16 0)
(3 -2.56595e-16 0)
(3 -5.64508e-16 0)
(3 -7.18465e-16 0)
(3 -8.72421e-16 0)
(3 -9.75059e-16 0)
(3 -9.11147e-16 0)
(3 -1.15294e-15 0)
(3 -1.10509e-15 0)
(3 -9.2374e-16 0)
(3 -6.15827e-16 0)
(3 -2.56595e-16 0)
(3 -4.56424e-17 0)
(3 1.54079e-16 0)
(3 3.84875e-16 0)
(3 2.4096e-16 0)
(3 1.54999e-16 0)
(3 -4.20718e-16 0)
(3 2.55433e-14 0)
(3 -2.21436e-13 0)
(3 -3.0332e-13 0)
(3 -1.49531e-11 0)
(3 -7.83785e-11 0)
(3 -1.69628e-10 0)
(3 -1.26084e-09 0)
(1.24092 1.10344 0)
(0.571338 0.64731 0)
(-0.576837 0.0378491 0)
(-0.421285 -0.160253 0)
(-0.584348 -0.166777 0)
(-0.455131 -0.0950344 0)
(-0.664372 0.0800321 0)
(-0.970474 0.139912 0)
(-1.15137 0.139395 0)
(-1.23285 0.0939687 0)
(-1.25569 0.060913 0)
(-1.2535 0.0281307 0)
(-1.25177 0.0297132 0)
(-1.28263 0.0172963 0)
(-1.36684 -0.00373089 0)
(-1.43244 -0.0218551 0)
(-1.47435 -0.0209951 0)
(-1.49309 -0.0173757 0)
(-1.49727 -0.0148809 0)
(-1.4945 -0.012637 0)
(-1.4936 -0.0101908 0)
(-1.49282 -0.00998089 0)
(-1.49897 -0.00720787 0)
(-1.50357 -0.00608264 0)
(-1.51299 -0.0023533 0)
(-1.51956 0.00114623 0)
(-1.52406 0.00519282 0)
(-1.5275 0.00516507 0)
(-1.52834 0.0050029 0)
(-1.52471 0.00157412 0)
(-1.51661 0.00328112 0)
(-1.48709 0.00268376 0)
(-1.46073 0.00675359 0)
(-1.39987 0.00922689 0)
(-1.32708 0.00314029 0)
(-1.25368 -0.00383096 0)
(-1.17999 -0.0177635 0)
(-1.10481 -0.0303236 0)
(-1.00205 -0.0448797 0)
(-0.911312 -0.0547024 0)
(-0.825168 -0.0465641 0)
(-0.731358 -0.0359441 0)
(-0.635499 -0.0242311 0)
(-0.535667 -0.00805244 0)
(-0.437929 0.00064596 0)
(-0.358297 0.0161843 0)
(-0.296472 0.0102232 0)
(-0.200384 -0.013246 0)
(-0.114563 -0.0167641 0)
(-0.0384744 -0.0304697 0)
(0.0630091 -0.0314061 0)
(0.134107 -0.0237778 0)
(0.209777 -0.0265255 0)
(0.278372 -0.0271113 0)
(0.344842 -0.0277912 0)
(0.406995 -0.0273177 0)
(0.464277 -0.0263153 0)
(0.518281 -0.0252367 0)
(0.568851 -0.0236241 0)
(0.616025 -0.0217732 0)
(0.660407 -0.0202429 0)
(0.702305 -0.0189753 0)
(0.741894 -0.0176446 0)
(0.779186 -0.0165564 0)
(0.814843 -0.0153946 0)
(0.848354 -0.0139167 0)
(0.880263 -0.0127589 0)
(0.91075 -0.0118255 0)
(0.939688 -0.0111418 0)
(0.967643 -0.0104706 0)
(0.994253 -0.0098541 0)
(1.02018 -0.00914396 0)
(1.04497 -0.00840844 0)
(1.06918 -0.00769417 0)
(1.09228 -0.00709119 0)
(1.11485 -0.00652244 0)
(1.13655 -0.00614487 0)
(1.15784 -0.00570622 0)
(1.17828 -0.00534294 0)
(1.19825 -0.00482303 0)
(1.21701 -0.0043845 0)
(1.23515 -0.00391011 0)
(1.25201 -0.00360462 0)
(1.2684 -0.00323222 0)
(1.28376 -0.00303335 0)
(1.29891 -0.00271034 0)
(1.31325 -0.00258269 0)
(1.32745 -0.00228393 0)
(1.34086 -0.00218278 0)
(1.35418 -0.00188236 0)
(1.36637 -0.00177945 0)
(1.37846 -0.00154538 0)
(1.38927 -0.00154897 0)
(1.4 -0.00141462 0)
(1.41022 -0.00160563 0)
(1.42046 -0.00150821 0)
(1.431 -0.00185493 0)
(1.4416 -0.0015647 0)
(1.453 -0.0018228 0)
(1.46613 -0.000537118 0)
(1.26844 1.002 0)
(1.21224 0.772565 0)
(0.738483 0.583957 0)
(0.658044 0.290547 0)
(0.154882 0.174011 0)
(-0.141924 0.130985 0)
(-0.348572 0.219263 0)
(-0.760284 0.144778 0)
(-0.884294 0.0343543 0)
(-0.931068 -0.00712809 0)
(-0.876655 -0.0420614 0)
(-0.847328 -0.0360709 0)
(-0.84302 -0.0264091 0)
(-0.908079 -0.0150829 0)
(-0.991603 -0.00777819 0)
(-1.06234 0.0393314 0)
(-1.10436 0.0579085 0)
(-1.11793 0.049583 0)
(-1.11747 0.0216452 0)
(-1.11079 0.0145945 0)
(-1.10797 0.00817109 0)
(-1.10662 0.00717158 0)
(-1.11204 0.00772096 0)
(-1.11554 0.00380388 0)
(-1.12818 0.00344353 0)
(-1.13879 -0.00232614 0)
(-1.15065 -0.00050742 0)
(-1.15818 -0.00489138 0)
(-1.16163 -0.00156956 0)
(-1.1551 -0.00161887 0)
(-1.14299 -0.000252342 0)
(-1.10553 -0.00640712 0)
(-1.07028 -0.00863966 0)
(-1.0168 -0.0159011 0)
(-0.930368 -0.0296609 0)
(-0.847675 -0.0399671 0)
(-0.76609 -0.0406749 0)
(-0.68483 -0.0173959 0)
(-0.557068 -0.0534792 0)
(-0.464362 -0.0395323 0)
(-0.374045 -0.0420814 0)
(-0.239916 -0.0758667 0)
(-0.127343 -0.0959372 0)
(0.0200669 -0.12194 0)
(0.166291 -0.135298 0)
(0.296674 -0.127045 0)
(0.43111 -0.135636 0)
(0.54621 -0.139104 0)
(0.623624 -0.120724 0)
(0.696596 -0.117915 0)
(0.760119 -0.11287 0)
(0.812234 -0.100227 0)
(0.863872 -0.0942519 0)
(0.906776 -0.0859732 0)
(0.947337 -0.0796818 0)
(0.983971 -0.0715979 0)
(1.01737 -0.0649885 0)
(1.04923 -0.0595024 0)
(1.0788 -0.0542063 0)
(1.10701 -0.0495862 0)
(1.13441 -0.0456434 0)
(1.16015 -0.0419816 0)
(1.18481 -0.0384337 0)
(1.20893 -0.0353293 0)
(1.23207 -0.0326187 0)
(1.25394 -0.0299975 0)
(1.27539 -0.0277522 0)
(1.29588 -0.0255613 0)
(1.31554 -0.023538 0)
(1.33475 -0.0216177 0)
(1.35355 -0.0200254 0)
(1.37205 -0.0186228 0)
(1.39001 -0.0173905 0)
(1.40749 -0.0161524 0)
(1.42441 -0.0149512 0)
(1.44111 -0.0137523 0)
(1.45743 -0.0126289 0)
(1.47353 -0.011366 0)
(1.48938 -0.0101928 0)
(1.50491 -0.00896302 0)
(1.51982 -0.007836 0)
(1.53418 -0.00670599 0)
(1.54778 -0.00579556 0)
(1.56101 -0.00494178 0)
(1.57352 -0.00431036 0)
(1.58583 -0.00366491 0)