/*--------------------------------*- C++ -*----------------------------------*\
| =========                 |                                                 |
| \\      /  F ield         | OpenFOAM: The Open Source CFD Toolbox           |
|  \\    /   O peration     | Version:  v2106                                 |
|   \\  /    A nd           | Website:  www.openfoam.com                      |
|    \\/     M anipulation  |                                                 |
\*---------------------------------------------------------------------------*/
FoamFile
{
    version     2.0;
    format      ascii;
    arch        "LSB;label=32;scalar=64";
    class       volScalarField;
    location    "19";
    object      Mo;
}
// * * * * * * * * * * * * * * * * * * * * * * * * * * * * * * * * * * * * * //

dimensions      [0 0 0 0 0 0 0];

internalField   nonuniform List<scalar> 
5250
(
3.01265
3.01265
3.01265
3.01265
3.01265
3.01265
3.01265
3.01265
3.01263
3.0125
3.01132
3.00087
2.92326
2.63525
1.80531
0.61413
0.208737
0.344073
0.283235
0.243318
0.212215
0.169663
0.127905
0.0809568
0.0380939
3.01265
3.01265
3.01265
3.01265
3.01265
3.01265
3.01265
3.01265
3.01263
3.01251
3.01138
3.00149
2.92633
2.64783
1.8426
0.641745
0.210714
0.350879
0.290565
0.247733
0.215884
0.174358
0.136191
0.0962665
0.0702153
3.01265
3.01265
3.01265
3.01265
3.01265
3.01265
3.01265
3.01265
3.01263
3.01252
3.01147
3.00239
2.93111
2.66513
1.87835
0.697215
0.20893
0.359104
0.297265
0.253041
0.224007
0.186348
0.154853
0.125941
0.111198
3.01265
3.01265
3.01265
3.01265
3.01265
3.01265
3.01265
3.01265
3.01264
3.01253
3.01157
3.00357
2.93757
2.68881
1.92704
0.77605
0.208237
0.369881
0.306333
0.264051
0.238651
0.206621
0.18248
0.161971
0.153301
3.01265
3.01265
3.01265
3.01265
3.01265
3.01265
3.01265
3.01265
3.01264
3.01255
3.01169
3.00491
2.9454
2.71748
1.98992
0.874503
0.219088
0.38512
0.323661
0.281878
0.259455
0.232467
0.213686
0.202637
0.198803
3.01265
3.01265
3.01265
3.01265
3.01265
3.01265
3.01265
3.01265
3.01264
3.01257
3.01188
3.00632
2.95432
2.75064
2.06307
1.00524
0.253929
0.405504
0.350313
0.304016
0.285009
0.264137
0.251666
0.247199
0.248532
3.01265
3.01265
3.01265
3.01265
3.01265
3.01265
3.01265
3.01265
3.01264
3.0126
3.01204
3.00799
2.96399
2.78844
2.14821
1.17541
0.318414
0.439235
0.393025
0.340004
0.320166
0.301765
0.296665
0.295274
0.305944
3.01265
3.01265
3.01265
3.01265
3.01265
3.01265
3.01265
3.01265
3.01264
3.01262
3.01207
3.00903
2.97103
2.81512
2.23088
1.2574
0.396986
0.477893
0.442679
0.389736
0.363893
0.34731
0.349949
0.355179
0.378051
3.01265
3.01265
3.01265
3.01265
3.01265
3.01265
3.01265
3.01265
3.01264
3.01263
3.01218
3.00995
2.9791
2.84579
2.32378
1.3445
0.466241
0.508774
0.486818
0.447582
0.420533
0.40181
0.413642
0.420201
0.474343
3.01265
3.01265
3.01265
3.01265
3.01265
3.01265
3.01265
3.01265
3.01264
3.01264
3.01222
3.01078
2.98342
2.87859
2.41936
1.45374
0.536552
0.531981
0.52545
0.505589
0.483791
0.466274
0.484679
0.51469
0.646115
3.01265
3.01265
3.01265
3.01265
3.01265
3.01265
3.01265
3.01265
3.01265
3.01264
3.01239
3.01109
2.99352
2.89989
2.51235
1.56899
0.634539
0.519271
0.552084
0.561342
0.55118
0.54132
0.56833
0.649991
0.874947
3.01265
3.01265
3.01265
3.01265
3.01265
3.01265
3.01265
3.01265
3.01265
3.01263
3.01255
3.01121
3.00338
2.91837
2.6203
1.70203
0.789311
0.494269
0.554383
0.590413
0.61436
0.621908
0.650538
0.758908
0.93161
3.01265
3.01265
3.01265
3.01265
3.01265
3.01265
3.01265
3.01265
3.01265
3.01264
3.01255
3.01176
3.00549
2.94899
2.73559
2.04254
1.04072
0.505752
0.566725
0.599667
0.636032
0.687835
0.726534
0.826453
0.957245
3.01265
3.01265
3.01265
3.01265
3.01265
3.01265
3.01265
3.01265
3.01265
3.01264
3.01261
3.01208
3.0086
2.96849
2.80531
2.22759
1.34134
0.583084
0.604025
0.620173
0.65197
0.707656
0.769978
0.864881
0.974504
3.01265
3.01265
3.01265
3.01265
3.01265
3.01265
3.01265
3.01265
3.01265
3.01264
3.01265
3.01205
3.01067
2.97808
2.87101
2.38447
1.52518
0.744933
0.66033
0.659837
0.680761
0.730551
0.795289
0.889071
0.983978
3.01265
3.01265
3.01265
3.01265
3.01265
3.01265
3.01265
3.01265
3.01265
3.01265
3.01263
3.01242
3.01087
2.99524
2.90408
2.53269
1.67237
0.94191
0.704222
0.714841
0.727811
0.760397
0.813463
0.892715
0.982777
3.01265
3.01265
3.01265
3.01265
3.01265
3.01265
3.01265
3.01265
3.01265
3.01265
3.01263
3.01267
3.01136
3.00978
2.93448
2.70656
1.89994
1.21142
0.726963
0.753632
0.768376
0.792081
0.833642
0.899193
0.979807
3.01265
3.01265
3.01265
3.01265
3.01265
3.01265
3.01265
3.01265
3.01265
3.01265
3.01264
3.01263
3.01194
3.00921
2.96743
2.82229
2.28183
1.49889
0.831009
0.792976
0.80539
0.824082
0.858119
0.911863
0.982587
3.01265
3.01265
3.01265
3.01265
3.01265
3.01265
3.01265
3.01265
3.01265
3.01265
3.01265
3.01262
3.01234
3.01018
2.99005
2.874
2.48311
1.68878
1.0254
0.841971
0.849437
0.865871
0.892527
0.934002
0.99098
3.01265
3.01265
3.01265
3.01265
3.01265
3.01265
3.01265
3.01265
3.01265
3.01265
3.01265
3.01262
3.01265
3.01087
3.00711
2.91443
2.69789
1.90265
1.3258
0.883214
0.894479
0.907816
0.928438
0.959797
1.0049
3.01265
3.01265
3.01265
3.01265
3.01265
3.01265
3.01265
3.01265
3.01265
3.01265
3.01265
3.01264
3.01258
3.01207
3.00786
2.97419
2.8076
2.30593
1.61459
1.00863
0.936804
0.939802
0.95667
0.984298
1.02207
3.01265
3.01265
3.01265
3.01265
3.01265
3.01265
3.01265
3.01265
3.01265
3.01265
3.01265
3.01264
3.01258
3.01256
3.0088
3.0088
2.8422
2.61735
1.87256
1.25816
0.992347
0.981057
0.992067
1.01276
1.0439
3.01265
3.01265
3.01265
3.01265
3.01265
3.01265
3.01265
3.01265
3.01265
3.01265
3.01265
3.01265
3.01264
3.01255
3.01173
3.00563
2.95761
2.76148
2.13349
1.58307
1.04736
1.01754
1.02163
1.03938
1.06724
3.01265
3.01265
3.01265
3.01265
3.01265
3.01265
3.01265
3.01265
3.01265
3.01265
3.01265
3.01265
3.01264
3.01257
3.01253
3.008
3.00974
2.80441
2.57704
1.88128
1.26738
1.06863
1.05835
1.07323
1.09607
3.01265
3.01265
3.01265
3.01265
3.01265
3.01265
3.01265
3.01265
3.01265
3.01265
3.01265
3.01265
3.01265
3.01263
3.0125
3.01139
3.00334
2.93926
2.71162
2.02607
1.60268
1.11962
1.09678
1.10574
1.12438
3.01265
3.01265
3.01265
3.01265
3.01265
3.01265
3.01265
3.01265
3.01265
3.01265
3.01265
3.01265
3.01265
3.01263
3.01255
3.01248
3.00775
3.01041
2.78953
2.51368
1.88739
1.31875
1.15507
1.14259
1.15716
3.01265
3.01265
3.01265
3.01265
3.01265
3.01265
3.01265
3.01265
3.01265
3.01265
3.01265
3.01265
3.01265
3.01265
3.01263
3.01248
3.0112
3.0023
2.93151
2.71155
2.05729
1.64794
1.20501
1.18115
1.18602
3.01265
3.01265
3.01265
3.01265
3.01265
3.01265
3.01265
3.01265
3.01265
3.01265
3.01265
3.01265
3.01265
3.01265
3.01263
3.01256
3.0126
3.0076
3.0139
2.79126
2.5415
1.93324
1.39649
1.23322
1.21696
3.01265
3.01265
3.01265
3.01265
3.01265
3.01265
3.01265
3.01265
3.01265
3.01265
3.01265
3.01265
3.01265
3.01265
3.01265
3.01262
3.01249
3.0112
3.00323
2.93218
2.72766
2.1248
1.74166
1.27953
1.25275
3.01265
3.01265
3.01265
3.01265
3.01265
3.01265
3.01265
3.01265
3.01265
3.01265
3.01265
3.01265
3.01265
3.01265
3.01265
3.01264
3.01259
3.01278
3.00878
3.01015
2.8194
2.57646
1.99521
1.48931
1.30569
3.01265
3.01265
3.01265
3.01265
3.01265
3.01265
3.01265
3.01265
3.01265
3.01265
3.01265
3.01265
3.01265
3.01265
3.01265
3.01265
3.01263
3.01257
3.01138
3.00576
2.94318
2.75846
2.20606
1.83368
1.36751
3.01265
3.01265
3.01265
3.01265
3.01265
3.01265
3.01265
3.01265
3.01265
3.01265
3.01265
3.01265
3.01265
3.01265
3.01265
3.01265
3.01265
3.0126
3.01263
3.00911
3.00543
2.85603
2.63817
2.06355
1.60426
3.01265
3.01265
3.01265
3.01265
3.01265
3.01265
3.01265
3.01265
3.01265
3.01265
3.01265
3.01265
3.01265
3.01265
3.01265
3.01265
3.01265
3.01263
3.01257
3.01163
3.00654
2.95431
2.77028
2.36143
1.96346
3.01265
3.01265
3.01265
3.01265
3.01265
3.01265
3.01265
3.01265
3.01265
3.01265
3.01265
3.01265
3.01265
3.01265
3.01265
3.01265
3.01265
3.01265
3.01266
3.01305
3.01111
3.00865
2.90502
2.8298
2.23963
3.01265
3.01265
3.01265
3.01265
3.01265
3.01265
3.01265
3.01265
3.01265
3.01265
3.01265
3.01265
3.01265
3.01265
3.01265
3.01265
3.01265
3.01265
3.01264
3.01259
3.01227
3.00855
3.00795
2.81452
2.65741
3.01265
3.01265
3.01265
3.01265
3.01265
3.01265
3.01265
3.01265
3.01265
3.01265
3.01265
3.01265
3.01265
3.01265
3.01265
3.01265
3.01265
3.01265
3.01265
3.01266
3.01249
3.01186
3.00618
2.94361
2.78965
3.01265
3.01265
3.01265
3.01265
3.01265
3.01265
3.01265
3.01265
3.01265
3.01265
3.01265
3.01265
3.01265
3.01265
3.01265
3.01265
3.01265
3.01265
3.01265
3.01265
3.0126
3.01254
3.01041
3.00658
2.88566
3.01265
3.01265
3.01265
3.01265
3.01265
3.01265
3.01265
3.01265
3.01265
3.01265
3.01265
3.01265
3.01265
3.01265
3.01265
3.01265
3.01265
3.01265
3.01265
3.01265
3.01264
3.01258
3.01206
3.00912
2.98508
3.01265
3.01265
3.01265
3.01265
3.01265
3.01265
3.01265
3.01265
3.01265
3.01265
3.01265
3.01265
3.01265
3.01265
3.01265
3.01265
3.01265
3.01265
3.01265
3.01265
3.01265
3.01264
3.01251
3.01157
3.00528
3.01265
3.01265
3.01265
3.01265
3.01265
3.01265
3.01265
3.01265
3.01265
3.01265
3.01265
3.01265
3.01265
3.01265
3.01265
3.01265
3.01265
3.01265
3.01265
3.01265
3.01265
3.01264
3.01263
3.01242
3.01068
3.01265
3.01265
3.01265
3.01265
3.01265
3.01265
3.01265
3.01265
3.01265
3.01265
3.01265
3.01265
3.01265
3.01265
3.01265
3.01265
3.01265
3.01265
3.01265
3.01265
3.01265
3.01265
3.01264
3.01255
3.01259
3.01265
3.01265
3.01265
3.01265
3.01265
3.01265
3.01265
3.01265
3.01265
3.01265
3.01265
3.01265
3.01265
3.01265
3.01265
3.01265
3.01265
3.01265
3.01265
3.01265
3.01265
3.01265
3.01265
3.01262
3.01261
3.01265
3.01265
3.01265
3.01265
3.01265
3.01265
3.01265
3.01265
3.01265
3.01265
3.01265
3.01265
3.01265
3.01265
3.01265
3.01265
3.01265
3.01265
3.01265
3.01265
3.01265
3.01265
3.01265
3.01264
3.01264
3.01265
3.01265
3.01265
3.01265
3.01265
3.01265
3.01265
3.01265
3.01265
3.01265
3.01265
3.01265
3.01265
3.01265
3.01265
3.01265
3.01265
3.01265
3.01265
3.01265
3.01265
3.01265
3.01265
3.01265
3.01264
3.01265
3.01265
3.01265
3.01265
3.01265
3.01265
3.01265
3.01265
3.01265
3.01265
3.01265
3.01265
3.01265
3.01265
3.01265
3.01265
3.01265
3.01265
3.01265
3.01265
3.01265
3.01265
3.01265
3.01265
3.01265
3.01265
3.01265
3.01265
3.01265
3.01265
3.01265
3.01265
3.01265
3.01265
3.01265
3.01265
3.01265
3.01265
3.01265
3.01265
3.01265
3.01265
3.01265
3.01265
3.01265
3.01265
3.01265
3.01265
3.01265
3.01265
3.01265
3.01265
3.01265
3.01265
3.01265
3.01265
3.01265
3.01265
3.01265
3.01265
3.01265
3.01265
3.01265
3.01265
3.01265
3.01265
3.01265
3.01265
3.01265
3.01265
3.01265
3.01265
3.01265
3.01265
3.01265
3.01265
3.01265
3.01265
3.01265
3.01265
3.01265
3.01265
3.01265
3.01265
3.01265
3.01265
3.01265
3.01265
3.01265
3.01265
3.01265
3.01265
3.01265
3.01265
3.01265
3.01265
3.01265
3.01265
3.01265
3.01265
3.01265
3.01265
3.01265
3.01265
3.01265
3.01265
3.01265
3.01265
3.01265
3.01265
3.01265
3.01265
3.01265
3.01265
3.01265
3.01265
3.01265
3.01265
3.01265
3.01265
3.01265
3.01265
3.01265
3.01265
3.01265
3.01265
3.01265
3.01265
3.01265
3.01265
3.01265
3.01265
3.01265
3.01265
3.01265
3.01265
3.01265
3.01265
3.01265
3.01265
3.01265
3.01265
3.01265
3.01265
3.01265
3.01265
3.01265
3.01265
3.01265
3.01265
1.13521
0.574011
0.354347
0.281525
0.376136
0.287464
0.414943
0.609932
0.749604
0.810082
0.822413
0.813896
0.810355
0.815455
0.864477
0.918421
0.962666
0.984283
0.990906
0.984536
0.97927
0.976783
0.976319
0.979588
0.982817
0.988418
0.994152
0.998301
1.00078
1.00181
1.00195
0.989916
0.977194
0.947328
0.906369
0.854215
0.797244
0.733106
0.663339
0.598849
0.534951
0.469082
0.406299
0.344333
0.281611
0.228855
0.19
0.128416
0.0729097
0.031993
0.041914
0.0820307
0.127953
0.170429
0.210884
0.248878
0.284513
0.318519
0.350807
0.381116
0.409534
0.436339
0.461947
0.486069
0.508862
0.530372
0.551135
0.57103
0.590174
0.608454
0.626021
0.643039
0.65965
0.675904
0.691889
0.70764
0.723188
0.738544
0.753468
0.7681
0.781997
0.79568
0.808815
0.821768
0.834223
0.84649
0.858224
0.869777
0.880748
0.891558
0.901744
0.911823
0.921438
0.930964
0.940093
0.94922
0.958483
0.968541
0.976899
0.985222
1.10589
0.95179
0.615376
0.445468
0.141187
0.115295
0.242242
0.449153
0.53463
0.571258
0.533733
0.508301
0.500915
0.526032
0.578617
0.632198
0.668712
0.6833
0.684378
0.676157
0.671929
0.669621
0.669365
0.672236
0.674769
0.681462
0.68809
0.695032
0.69961
0.701332
0.700599
0.68616
0.67121
0.644059
0.603196
0.554652
0.499441
0.434893
0.358814
0.298958
0.238675
0.157935
0.101314
0.0699578
0.117727
0.184897
0.264976
0.337144
0.381975
0.427419
0.467437
0.501679
0.536207
0.566541
0.592961
0.618289
0.641588
0.664631
0.686451
0.707496
0.727369
0.746504
0.765291
0.783177
0.800325
0.816703
0.83241
0.847654
0.862506
0.87708
0.891138
0.904651
0.917837
0.930819
0.943729
0.956496
0.969206
0.981791
0.994139
1.0062
1.01771
1.02894
1.03986
1.05063
1.06116
1.0715
1.0815
1.09132
1.1007
1.10993
1.11865
1.12723
1.13552
1.14364
1.1514
1.15914
1.16705
1.1759
1.18336
1.19101
1.0639
1.08831
0.975448
0.832857
0.603917
0.430631
0.348144
0.400038
0.356569
0.267245
0.16431
0.0538285
0.0231557
0.0961433
0.153552
0.300669
0.361127
0.397904
0.39659
0.380337
0.369297
0.363651
0.366301
0.369275
0.376953
0.384279
0.392064
0.39825
0.399916
0.399067
0.398538
0.389648
0.374483
0.345817
0.298939
0.242662
0.185948
0.127573
0.115219
0.176409
0.315157
0.423576
0.492725
0.555392
0.603987
0.638077
0.671128
0.706288
0.723426
0.741002
0.758177
0.776181
0.793753
0.810952
0.827524
0.844168
0.859729
0.875365
0.890928
0.906213
0.921329
0.935884
0.949982
0.963579
0.977226
0.990525
1.00359
1.0163
1.02865
1.04057
1.05208
1.06334
1.07456
1.08581
1.09711
1.10831
1.11949
1.13056
1.14147
1.15205
1.16225
1.17232
1.1822
1.19194
1.20139
1.2106
1.21946
1.22816
1.23654
1.24477
1.25267
1.26042
1.268
1.27553
1.28276
1.28994
1.2973
1.30584
1.31305
1.32091
1.07496
1.1679
1.18231
1.1309
1.00106
0.838687
0.662277
0.641922
0.630224
0.586775
0.510023
0.408246
0.302899
0.271345
0.260235
0.287513
0.261554
0.211976
0.170775
0.105219
0.0707597
0.0282085
0.00999995
0.031571
0.0532338
0.0786625
0.0968398
0.130147
0.142117
0.150762
0.156025
0.140567
0.122142
0.0898631
0.0798514
0.156286
0.308621
0.4647
0.604994
0.68241
0.764253
0.816338
0.842138
0.863866
0.884685
0.895929
0.911828
0.931932
0.939867
0.944893
0.953919
0.963484
0.972881
0.981594
0.990537
1.00068
1.01101
1.02187
1.03303
1.04372
1.0542
1.06455
1.07496
1.0855
1.09624
1.10692
1.11766
1.12821
1.13884
1.14912
1.15933
1.16937
1.17937
1.18912
1.19877
1.20846
1.21819
1.22797
1.23787
1.24758
1.25715
1.26651
1.27571
1.28462
1.29335
1.30182
1.31019
1.31841
1.3266
1.33444
1.34213
1.34926
1.35631
1.36307
1.3697
1.37626
1.38309
1.391
1.3987
1.40703
1.09353
1.17861
1.24382
1.28798
1.23671
1.15948
1.05908
0.98358
0.977746
0.924797
0.835973
0.730843
0.62166
0.555286
0.504593
0.497979
0.494164
0.477172
0.444559
0.394088
0.3361
0.283879
0.241918
0.208571
0.178724
0.159203
0.136542
0.126108
0.10854
0.0841812
0.0847141
0.105791
0.173467
0.274658
0.410473
0.58749
0.743401
0.881936
0.96736
1.01962
1.06854
1.08788
1.09446
1.0967
1.09781
1.09755
1.10345
1.10467
1.10244
1.09949
1.09898
1.09727
1.0951
1.0982
1.10119
1.10509
1.11012
1.11586
1.12213
1.12859
1.13564
1.14273
1.15033
1.15831
1.16659
1.17521
1.1844
1.19386
1.20324
1.21264
1.22212
1.23123
1.24001
1.24873
1.25758
1.26662
1.27595
1.28525
1.29457
1.30368
1.31247
1.32124
1.33009
1.33877
1.34728
1.35563
1.36378
1.37154
1.3792
1.38659
1.3938
1.40053
1.40729
1.41392
1.4205
1.42707
1.43389
1.4415
1.44953
1.45818
1.09232
1.1845
1.25322
1.31847
1.32851
1.30557
1.27332
1.25709
1.27154
1.27033
1.20362
1.11523
1.0126
0.919397
0.846482
0.8186
0.792326
0.758042
0.713668
0.659856
0.604332
0.548038
0.499047
0.451728
0.414587
0.377689
0.346924
0.316668
0.298989
0.276196
0.276936
0.317079
0.412658
0.561831
0.751808
0.931256
1.05755
1.17208
1.24513
1.29439
1.3258
1.33128
1.32434
1.30801
1.28528
1.26151
1.23533
1.20829
1.20494
1.19778
1.1901
1.18045
1.16781
1.16473
1.16111
1.16381
1.16611
1.16818
1.17082
1.17445
1.17944
1.18507
1.19115
1.19762
1.20462
1.21226
1.22043
1.22889
1.23763
1.24589
1.25408
1.26239
1.27091
1.27973
1.28873
1.29781
1.30677
1.31559
1.32428
1.33281
1.34139
1.35004
1.35862
1.36707
1.37542
1.38325
1.3909
1.3984
1.40601
1.41349
1.42081
1.42773
1.43455
1.44123
1.44785
1.45431
1.46099
1.46828
1.47661
1.48545
1.07217
1.17462
1.2504
1.30937
1.36074
1.36585
1.37503
1.37868
1.39215
1.42045
1.44192
1.3979
1.3422
1.27643
1.21625
1.15732
1.13021
1.09614
1.05064
0.994063
0.930808
0.863243
0.803749
0.743606
0.697292
0.648542
0.610175
0.56645
0.5332
0.488562
0.486727
0.54209
0.676959
0.855124
1.04085
1.17925
1.29405
1.38418
1.44725
1.49026
1.51933
1.52226
1.51454
1.49486
1.46306
1.41775
1.3576
1.30501
1.25073
1.24473
1.23811
1.22742
1.21883
1.20793
1.19843
1.19368
1.19565
1.19776
1.19982
1.20159
1.20389
1.20755
1.21297
1.21914
1.22578
1.23267
1.23951
1.24664
1.2543
1.2623
1.27026
1.27835
1.28666
1.29514
1.30373
1.31246
1.32131
1.33016
1.33894
1.34767
1.35636
1.36483
1.37323
1.3814
1.38927
1.39678
1.40419
1.41159
1.4191
1.42642
1.43374
1.44055
1.44728
1.45393
1.46045
1.46704
1.47388
1.48136
1.48993
1.49914
1.06295
1.15128
1.23745
1.29841
1.35385
1.37629
1.4048
1.42634
1.45765
1.4868
1.51924
1.54351
1.51795
1.48619
1.45112
1.42421
1.40421
1.40304
1.38556
1.34471
1.28908
1.2214
1.15197
1.08673
1.02671
0.969736
0.918205
0.855106
0.815684
0.751863
0.738426
0.803262
0.932656
1.09236
1.23387
1.34938
1.44457
1.51827
1.56915
1.61289
1.6339
1.64258
1.63689
1.62251
1.59928
1.56248
1.51457
1.45336
1.37464
1.31075
1.24559
1.24787
1.24532
1.23995
1.22982
1.22174
1.21309
1.21482
1.21735
1.21953
1.22194
1.22514
1.22914
1.23412
1.23935
1.24517
1.25168
1.25849
1.26567
1.27332
1.28128
1.28933
1.29741
1.30555
1.31382
1.3223
1.33104
1.33978
1.34865
1.35732
1.36586
1.3742
1.38245
1.39038
1.39789
1.40509
1.4123
1.41954
1.42693
1.43422
1.44152
1.44827
1.45482
1.46128
1.46774
1.47432
1.4812
1.48868
1.49756
1.50702
1.06046
1.13481
1.2128
1.28166
1.33492
1.36945
1.40448
1.43107
1.46261
1.5063
1.54391
1.58457
1.60472
1.59488
1.583
1.56901
1.56272
1.56714
1.57408
1.57033
1.54027
1.50173
1.45908
1.41478
1.36915
1.32039
1.26908
1.21161
1.13672
1.0716
1.0156
1.04814
1.13028
1.24059
1.34152
1.43633
1.51429
1.57982
1.63538
1.68194
1.69619
1.7007
1.69811
1.69466
1.6826
1.6622
1.63517
1.59111
1.53031
1.44398
1.36362
1.28084
1.24824
1.25395
1.25284
1.24926
1.2422
1.23703
1.23101
1.23335
1.23654
1.23986
1.24293
1.24661
1.2512
1.25691
1.26331
1.27035
1.27758
1.28483
1.29237
1.30027
1.30846
1.31684
1.3253
1.33347
1.34154
1.34968
1.35788
1.36607
1.37421
1.38235
1.39037
1.3981
1.40553
1.41256
1.41961
1.42668
1.43388
1.44098
1.448
1.45466
1.46107
1.46749
1.47401
1.48069
1.48769
1.49534
1.50447
1.51418
1.06261
1.1271
1.19563
1.26215
1.30996
1.35392
1.39055
1.42301
1.45751
1.49791
1.54529
1.58506
1.62283
1.64282
1.64233
1.64179
1.64467
1.65147
1.66271
1.67346
1.6778
1.65813
1.63433
1.60715
1.57845
1.54789
1.50999
1.46978
1.39101
1.27919
1.20817
1.18782
1.24315
1.31737
1.40126
1.47348
1.54369
1.60585
1.64529
1.66937
1.69326
1.71817
1.72722
1.72614
1.72301
1.71998
1.70901
1.68445
1.65013
1.59932
1.52726
1.42391
1.34534
1.25745
1.26055
1.26572
1.2673
1.26469
1.25928
1.25449
1.25541
1.25748
1.26093
1.26486
1.26891
1.27343
1.27856
1.28437
1.29069
1.29747
1.30467
1.3122
1.32007
1.32828
1.33646
1.34474
1.3526
1.36045
1.36834
1.37637
1.38444
1.39256
1.40047
1.40808
1.41533
1.4222
1.42895
1.4357
1.44251
1.44934
1.45605
1.46264
1.46903
1.47549
1.48206
1.4888
1.49589
1.50366
1.51294
1.52281
1.07133
1.12789
1.18795
1.24686
1.2943
1.33974
1.37206
1.40798
1.4452
1.48562
1.52987
1.57481
1.6133
1.64951
1.66224
1.6711
1.67546
1.68699
1.69884
1.71449
1.72877
1.73845
1.72749
1.71328
1.69651
1.67261
1.64601
1.59221
1.50357
1.36038
1.2133
1.24017
1.28081
1.3354
1.40053
1.46016
1.51968
1.56412
1.59917
1.63224
1.6601
1.68272
1.70432
1.72561
1.7444
1.74351
1.73905
1.73212
1.72387
1.70141
1.6632
1.60518
1.52086
1.41096
1.31627
1.26492
1.27588
1.28549
1.28431
1.28147
1.27633
1.27706
1.27848
1.28175
1.28581
1.28944
1.29369
1.29834
1.30401
1.31052
1.31763
1.32512
1.33289
1.34077
1.34859
1.35639
1.36395
1.37151
1.37919
1.38706
1.39499
1.40292
1.4107
1.41804
1.425
1.43171
1.43839
1.44508
1.45187
1.45863
1.46536
1.47195
1.47825
1.48461
1.49107
1.49769
1.50469
1.5124
1.52174
1.5317
1.08553
1.13407
1.18676
1.23801
1.28724
1.32408
1.36159
1.39444
1.42832
1.46697
1.50727
1.55376
1.59506
1.63471
1.66314
1.67661
1.68647
1.69988
1.71368
1.73115
1.74777
1.76433
1.77574
1.77381
1.76152
1.74245
1.70703
1.6325
1.50823
1.35959
1.21972
1.24209
1.27809
1.3298
1.38019
1.43237
1.47843
1.51873
1.55695
1.59016
1.61577
1.64375
1.66989
1.69615
1.71615
1.73458
1.74818
1.75693
1.75632
1.75613
1.7505
1.72239
1.67388
1.60194
1.49266
1.39865
1.29228
1.28907
1.29995
1.31007
1.30846
1.30523
1.30178
1.30342
1.30562
1.30893
1.31285
1.31777
1.32306
1.32924
1.33606
1.34343
1.35096
1.35825
1.36568
1.37317
1.38019
1.38731
1.39468
1.40202
1.40933
1.41653
1.42373
1.43077
1.43746
1.44387
1.45026
1.45665
1.46314
1.46963
1.47609
1.4826
1.48884
1.49516
1.5016
1.5082
1.51518
1.5229
1.53226
1.54226
1.10407
1.14681
1.19306
1.23901
1.285
1.3197
1.35576
1.38416
1.41481
1.44985
1.48679
1.52871
1.57176
1.609
1.6449
1.66827
1.68251
1.69845
1.71455
1.73173
1.75013
1.76785
1.7851
1.80063
1.78938
1.76404
1.70376
1.59355
1.41604
1.25176
1.2101
1.2338
1.268
1.30512
1.34574
1.38872
1.43005
1.46838
1.50429
1.53749
1.56783
1.59845
1.6262
1.65319
1.67464
1.69777
1.72221
1.74459
1.76629
1.79015
1.78631
1.77996
1.76288
1.73089
1.67696
1.59768
1.48123
1.39488
1.30483
1.31684
1.33218
1.34282
1.34033
1.33635
1.33361
1.33571
1.33916
1.34403
1.34994
1.35619
1.36283
1.36958
1.37686
1.38404
1.39043
1.39665
1.40271
1.40905
1.41586
1.42307
1.42996
1.43662
1.44302
1.44929
1.45552
1.46147
1.4674
1.4734
1.4795
1.48579
1.49209
1.49846
1.50481
1.51111
1.51746
1.52395
1.53078
1.53836
1.54769
1.55758
1.12698
1.16353
1.20447
1.24485
1.28564
1.31954
1.35218
1.38032
1.40913
1.4389
1.47104
1.50763
1.54838
1.5889
1.62079
1.65327
1.66939
1.68726
1.70731
1.72455
1.7377
1.75814
1.77567
1.79342
1.78037
1.73873
1.6451
1.46655
1.33492
1.18966
1.20314
1.22246
1.24828
1.27858
1.3128
1.35044
1.38822
1.42533
1.46093
1.49474
1.52784
1.56033
1.587
1.61378
1.6411
1.67055
1.69882
1.72759
1.75004
1.77352
1.80065
1.80519
1.80303
1.80255
1.78674
1.74663
1.68306
1.5917
1.4751
1.36734
1.34064
1.3559
1.37296
1.37041
1.36675
1.36482
1.36679
1.37023
1.37511
1.38137
1.38719
1.39354
1.39961
1.40637
1.4132
1.41975
1.4257
1.43141
1.43734
1.44358
1.45007
1.45658
1.46273
1.46873
1.47465
1.48037
1.48604
1.49173
1.49751
1.50346
1.50963
1.51593
1.52235
1.52886
1.53542
1.542
1.54879
1.55619
1.56527
1.57483
1.15113
1.1826
1.21941
1.25571
1.29246
1.32399
1.35262
1.38188
1.40641
1.43256
1.46194
1.49323
1.52798
1.56796
1.60133
1.62916
1.65413
1.67922
1.69727
1.71153
1.73092
1.75198
1.77289
1.76527
1.73728
1.66385
1.51865
1.35817
1.20628
1.18795
1.19696
1.21157
1.2318
1.25725
1.2865
1.3189
1.3529
1.38795
1.42285
1.45804
1.49199
1.52463
1.55432
1.585
1.61669
1.64935
1.67583
1.69657
1.7203
1.74843
1.77482
1.79766
1.818
1.83921
1.8364
1.82678
1.80687
1.76088
1.68831
1.56568
1.47389
1.37008
1.38008
1.39351
1.40436
1.40626
1.4052
1.40555
1.4084
1.41304
1.41916
1.42533
1.43043
1.4353
1.4403
1.44556
1.45109
1.45687
1.46274
1.46878
1.47482
1.48081
1.48675
1.49232
1.4977
1.50287
1.50799
1.51319
1.51862
1.52429
1.5302
1.53634
1.54267
1.54912
1.55566
1.56227
1.56897
1.5763
1.58544
1.59484
1.17807
1.20404
1.23661
1.27026
1.3033
1.33213
1.3569
1.38321
1.40651
1.43086
1.45674
1.48483
1.51753
1.55133
1.58732
1.61443
1.63864
1.66327
1.68467
1.70378
1.72491
1.73878
1.74683
1.72578
1.66389
1.54889
1.37918
1.23404
1.18522
1.18924
1.19623
1.20749
1.22345
1.24383
1.26843
1.29642
1.32739
1.36032
1.39446
1.42957
1.46444
1.49624
1.52854
1.56177
1.59737
1.62127
1.64647
1.67345
1.70103
1.72953
1.75771
1.78557
1.81173
1.83346
1.85124
1.86464
1.87013
1.86404
1.82978
1.77287
1.68846
1.56634
1.46384
1.40164
1.41653
1.43122
1.44645
1.44513
1.44552
1.44743
1.45159
1.45695
1.46416
1.4705
1.47425
1.47746
1.48104
1.48548
1.49128
1.49726
1.50358
1.50907
1.5142
1.51891
1.5235
1.52807
1.53267
1.53748
1.54262
1.54808
1.55386
1.55996
1.56625
1.57273
1.57917
1.5857
1.5923
1.59955
1.60876
1.61816
1.20361
1.22532
1.25393
1.28641
1.31641
1.3453
1.36504
1.38761
1.41139
1.4316
1.45371
1.47874
1.50929
1.54176
1.57566
1.6062
1.63079
1.6528
1.67464
1.69628
1.7175
1.71915
1.70383
1.65394
1.55217
1.38693
1.24643
1.18693
1.1904
1.1948
1.20113
1.21008
1.22243
1.23916
1.2601
1.28505
1.31301
1.34326
1.37592
1.40984
1.44417
1.47649
1.51037
1.54432
1.57258
1.601
1.6299
1.65984
1.68896
1.71896
1.74865
1.77766
1.80164
1.82703
1.85378
1.87861
1.90577
1.90435
1.9016
1.88906
1.84844
1.78241
1.67605
1.56449
1.44737
1.4468
1.4573
1.47288
1.48887
1.48707
1.48617
1.48873
1.49208
1.49735
1.50294
1.50703
1.51013
1.51384
1.51836
1.5241
1.52975
1.53559
1.54025
1.54428
1.54844
1.55277
1.55734
1.56219
1.56738
1.57293
1.57883
1.58512
1.5915
1.59804
1.60448
1.61095
1.61755
1.62475
1.63398
1.64346
1.23084
1.24886
1.27274
1.30288
1.33026
1.36046
1.37647
1.39612
1.41948
1.43638
1.455
1.47648
1.50374
1.53437
1.56812
1.59888
1.62405
1.64701
1.66818
1.69283
1.70207
1.68725
1.64287
1.54952
1.38893
1.2464
1.17974
1.1888
1.1953
1.20263
1.20978
1.21826
1.22913
1.24324
1.26103
1.28234
1.30723
1.33534
1.36664
1.39891
1.43097
1.46487
1.49846
1.52724
1.55752
1.58925
1.62054
1.65151
1.68079
1.71164
1.74084
1.76872
1.79581
1.82187
1.84578
1.87252
1.89694
1.9198
1.94434
1.943
1.93808
1.91466
1.86905
1.78887
1.66204
1.57121
1.47149
1.48364
1.50483
1.51663
1.52871
1.52749
1.52761
1.52904
1.53226
1.53543
1.53943
1.54328
1.54713
1.55137
1.55639
1.56158
1.56652
1.57072
1.57486
1.57928
1.58392
1.58867
1.59367
1.59904
1.60486
1.61126
1.61781
1.62448
1.63104
1.63746
1.64405
1.65112
1.66017
1.66951
1.25062
1.26702
1.28779
1.31684
1.34409
1.3765
1.39193
1.40941
1.43014
1.4483
1.46198
1.47947
1.50276
1.53053
1.56102
1.59251
1.61659
1.64548
1.66683
1.6868
1.67352
1.63488
1.54904
1.39121
1.25641
1.16612
1.17912
1.19032
1.20283
1.21202
1.22092
1.23048
1.2414
1.25426
1.27001
1.28897
1.31124
1.33677
1.36456
1.39427
1.42682
1.45965
1.48848
1.51886
1.551
1.58344
1.61395
1.64534
1.67504
1.7057
1.73528
1.76363
1.7909
1.81681
1.84296
1.86747
1.8891
1.91434
1.93867
1.96302
1.98019
1.98136
1.9752
1.93542
1.87561
1.78589
1.66334
1.5504
1.5143
1.52396
1.54406
1.56493
1.57082
1.57069
1.57039
1.57007
1.56942
1.5692
1.57313
1.57715
1.5819
1.58691
1.59241
1.59758
1.60252
1.60724
1.61206
1.61655
1.62097
1.62594
1.63156
1.63792
1.64455
1.65135
1.65791
1.66414
1.67056
1.6775
1.68656
1.69574
1.27934
1.29197
1.30844
1.33198
1.35944
1.38641
1.41093
1.42462
1.44283
1.46361
1.47598
1.48989
1.50869
1.53224
1.5591
1.58653
1.61493
1.6406
1.66639
1.65654
1.62464
1.54806
1.39187
1.27254
1.15364
1.16702
1.18091
1.19521
1.20994
1.22264
1.23398
1.24537
1.25706
1.26969
1.28375
1.30017
1.31914
1.34113
1.36586
1.3939
1.42343
1.45379
1.48519
1.51864
1.55253
1.58151
1.61065
1.64035
1.67093
1.70078
1.73136
1.76063
1.78785
1.81416
1.84137
1.86104
1.88294
1.90624
1.93268
1.96206
1.98879
2.00982
2.01523
2.01615
1.99359
1.94395
1.87219
1.74998
1.6577
1.54773
1.55957
1.57325
1.58664
1.6026
1.6012
1.59824
1.59577
1.59443
1.59456
1.60137
1.60715
1.61408
1.61919
1.62415
1.62861
1.63281
1.63724
1.64187
1.64645
1.65138
1.65692
1.66323
1.67017
1.67705
1.68411
1.69046
1.69678
1.70373
1.71281
1.72188
1.31944
1.30664
1.32327
1.34478
1.37283
1.39718
1.42785
1.44196
1.45895
1.47826
1.49279
1.50549
1.52124
1.54248
1.56649
1.58796
1.61535
1.63358
1.64226
1.61455
1.54449
1.40104
1.27117
1.14633
1.15591
1.16966
1.18478
1.2012
1.21733
1.23335
1.24726
1.26013
1.27309
1.28647
1.30084
1.31668
1.33461
1.35482
1.37782
1.40283
1.43043
1.45996
1.49069
1.52184
1.55291
1.5836
1.6142
1.64353
1.67311
1.703
1.73368
1.7633
1.7892
1.81533
1.83696
1.85947
1.88313
1.90739
1.93158
1.9572
1.98447
2.00859
2.02865
2.04557
2.04017
2.02879
2.00505
1.94798
1.86816
1.7497
1.65733
1.58154
1.58938
1.60962
1.62183
1.63294
1.62817
1.62546
1.6244
1.62544
1.63167
1.63739
1.64432
1.64948
1.65361
1.65721
1.66092
1.66512
1.6696
1.67442
1.67984
1.68608
1.69321
1.70039
1.70779
1.71438
1.72078
1.72798
1.73751
1.74719
1.38369
1.34394
1.3441
1.3609
1.38449
1.4099
1.43739
1.45751
1.47426
1.49619
1.50993
1.52155
1.53517
1.55367
1.5752
1.59916
1.61802
1.6192
1.59725
1.53751
1.41407
1.27299
1.14143
1.1478
1.15836
1.17388
1.19133
1.20936
1.22772
1.24611
1.26369
1.28117
1.29633
1.31166
1.3273
1.34359
1.36093
1.37969
1.40025
1.42275
1.44718
1.47326
1.5009
1.52976
1.55931
1.58899
1.61836
1.64745
1.67626
1.70516
1.73414
1.76214
1.78891
1.81365
1.83481
1.85774
1.88114
1.90378
1.92697
1.95252
1.97791
2.00372
2.03056
2.05298
2.06684
2.06725
2.0636
2.04884
2.00964
1.94829
1.85508
1.74355
1.63419
1.62893
1.62998
1.64044
1.65021
1.65677
1.65568
1.65572
1.65664
1.66145
1.66731
1.67321
1.67857
1.68189
1.68505
1.68872
1.69314
1.69799
1.7038
1.71074
1.71851
1.72623
1.7338
1.73998
1.74605
1.75291
1.76231
1.77222
1.49761
1.39404
1.37146
1.38438
1.40085
1.42338
1.44518
1.47331
1.48743
1.50671
1.53034
1.54125
1.55004
1.56471
1.58374
1.60908
1.61494
1.59021
1.53187
1.42521
1.27691
1.14045
1.14478
1.1542
1.17004
1.18789
1.20699
1.22655
1.2468
1.26743
1.28776
1.30738
1.32405
1.33987
1.35565
1.37159
1.38809
1.40532
1.42376
1.44363
1.46514
1.48834
1.51297
1.53887
1.56581
1.59342
1.62148
1.64997
1.67854
1.70707
1.73412
1.76033
1.78696
1.80874
1.8321
1.85606
1.87738
1.89976
1.92495
1.95031
1.97755
2.00275
2.02695
2.04126
2.06041
2.07521
2.09355
2.09126
2.07917
2.065
2.01784
1.9485
1.82823
1.73973
1.64779
1.6534
1.65983
1.66917
1.68174
1.68749
1.68776
1.68851
1.68992
1.69544
1.70029
1.70528
1.70872
1.71214
1.71636
1.72122
1.72619
1.7326
1.74082
1.74883
1.75722
1.7637
1.77006
1.77676
1.78623
1.79653
1.83886
1.44186
1.41609
1.39828
1.413
1.43442
1.45662
1.48285
1.50021
1.51772
1.53786
1.55577
1.56337
1.57762
1.59043
1.60711
1.58467
1.53103
1.42878
1.28313
1.13959
1.1445
1.15475
1.17131
1.18868
1.20685
1.22592
1.24603
1.26722
1.2886
1.30966
1.32985
1.34862
1.36593
1.38205
1.39792
1.41388
1.43021
1.44721
1.46515
1.48436
1.50482
1.52676
1.54995
1.57446
1.60001
1.62656
1.65405
1.68164
1.70969
1.73714
1.76312
1.78876
1.81207
1.83601
1.85636
1.87846
1.90082