/*--------------------------------*- C++ -*----------------------------------*\
| =========                 |                                                 |
| \\      /  F ield         | OpenFOAM: The Open Source CFD Toolbox           |
|  \\    /   O peration     | Version:  v2106                                 |
|   \\  /    A nd           | Website:  www.openfoam.com                      |
|    \\/     M anipulation  |                                                 |
\*---------------------------------------------------------------------------*/
FoamFile
{
    version     2.0;
    format      ascii;
    arch        "LSB;label=32;scalar=64";
    class       volScalarField;
    location    "19";
    object      p;
}
// * * * * * * * * * * * * * * * * * * * * * * * * * * * * * * * * * * * * * //

dimensions      [1 -1 -2 0 0 0 0];

internalField   nonuniform List<scalar> 
5250
(
1
1
1
1
1
1
1
1
1.00001
1.00008
1.00074
1.0065
1.05775
1.45031
3.19264
9.19766
12.8253
10.9138
11.4731
11.6787
11.7719
11.9274
12.0351
12.1181
12.1644
1
1
1
1
1
1
1
1
1.00001
1.00008
1.0007
1.00622
1.05476
1.43379
3.12285
9.07012
12.8989
10.8921
11.4595
11.6633
11.7618
11.9159
12.0213
12.1046
12.1505
1
1
1
1
1
1
1
1
1.00001
1.00007
1.00065
1.00579
1.05038
1.40835
3.0247
8.74192
12.9751
10.8219
11.4062
11.6185
11.7097
11.8603
11.9633
12.04
12.0809
1
1
1
1
1
1
1
1
1.00001
1.00007
1.00058
1.00525
1.0447
1.37416
2.88944
8.29892
13.1016
10.7427
11.3585
11.5705
11.6528
11.7898
11.8804
11.9486
11.9865
1
1
1
1
1
1
1
1
1.00001
1.00006
1.00049
1.00467
1.03825
1.33314
2.72414
7.74631
13.193
10.665
11.2733
11.4773
11.5486
11.6711
11.7588
11.8225
11.8581
1
1
1
1
1
1
1
1
1.00001
1.00005
1.0004
1.00375
1.03122
1.28719
2.53237
7.14238
13.1356
10.6029
11.1699
11.3761
11.4523
11.5516
11.6208
11.6463
11.6717
1
1
1
1
1
1
1
1
1
1.00004
1.00028
1.00291
1.02426
1.23738
2.31262
6.46625
12.9676
10.6056
11.042
11.26
11.2997
11.3543
11.4175
11.4315
11.4269
1
1
1
1
1
1
1
1
1
1.00003
1.00021
1.00259
1.01977
1.19998
2.14969
5.81747
12.3987
10.6004
10.8791
11.0698
11.157
11.1646
11.1472
11.1635
11.0547
1
1
1
1
1
1
1
1
1
1.00003
1.00015
1.00207
1.01512
1.15908
1.96176
5.1427
11.6091
10.5913
10.7149
10.8772
10.9172
10.8738
10.7734
10.7062
10.4808
1
1
1
1
1
1
1
1
1
1.00003
1.0001
1.00178
1.01142
1.13405
1.79369
4.50919
10.6647
10.5782
10.5756
10.5844
10.6516
10.5865
10.3111
10.3622
9.43741
1
1
1
1
1
1
1
1
1
1.00002
1.00009
1.00117
1.00864
1.09065
1.62177
3.87312
9.57729
10.6229
10.3966
10.2992
10.2464
10.2006
9.69881
9.33482
6.87714
1
1
1
1
1
1
1
1
1
1.00001
1.00009
1.00057
1.00662
1.05036
1.46494
3.29459
8.4187
10.6718
10.0403
10.0172
9.89234
9.74741
9.09413
8.46505
6.52244
1
1
1
1
1
1
1
1
1
1.00001
1.00006
1.00047
1.00433
1.0354
1.31448
2.63111
7.11357
10.691
9.72434
9.71775
9.61554
9.37179
8.76737
7.99069
6.65147
1
1
1
1
1
1
1
1
1
1
1.00003
1.00024
1.00265
1.02141
1.21383
2.21359
5.86875
10.4758
9.63299
9.48298
9.37797
9.0779
8.50468
7.7744
6.64595
1
1
1
1
1
1
1
1
1
1
1.00004
1.00011
1.00243
1.01347
1.15711
1.86592
4.78039
9.46179
9.6082
9.35627
9.12467
8.78145
8.25602
7.61
6.64437
1
1
1
1
1
1
1
1
1
1
1.00002
1.00012
1.0011
1.00887
1.08469
1.57505
3.74863
8.09057
9.5278
9.12958
8.83483
8.50034
8.05065
7.49161
6.64798
1
1
1
1
1
1
1
1
1
1
1.00001
1.00007
0.999869
1.00506
1.02488
1.34427
2.8338
6.67661
9.41227
8.91013
8.61441
8.31823
7.89298
7.38035
6.64359
1
1
1
1
1
1
1
1
1
1
0.999999
1.00004
1.0002
1.00305
1.02031
1.21323
2.15587
5.26216
8.92728
8.84359
8.53174
8.20699
7.7891
7.28136
6.63435
1
1
1
1
1
1
1
1
1
1
1
1.00002
1.00015
1.00148
1.0122
1.11056
1.72219
4.09202
7.87345
8.83226
8.45818
8.05911
7.64594
7.18009
6.60673
1
1
1
1
1
1
1
1
1
1
1
0.999999
1.00011
1.00029
1.00699
1.03819
1.44672
3.01976
6.41001
8.6334
8.24439
7.89612
7.52685
7.11113
6.5956
1
1
1
1
1
1
1
1
1
1
1
1
1.00004
1.00033
1.00284
1.02363
1.19132
2.11643
4.87837
7.98953
8.15638
7.84058
7.46951
7.06941
6.5978
1
1
1
1
1
1
1
1
1
1
1
1
1.00004
1.00027
1.0001
1.01447
1.05542
1.74054
3.64608
6.78738
8.14316
7.8026
7.44284
7.05555
6.61059
1
1
1
1
1
1
1
1
1
1
1
1
1.00001
1.00007
1.00051
1.0045
1.0351
1.27209
2.47514
5.28827
7.73658
7.64771
7.37797
7.02831
6.60985
1
1
1
1
1
1
1
1
1
1
1
1
1
1.00004
1.00039
1.00122
1.01797
1.02601
1.82548
3.97886
6.85111
7.70825
7.39442
7.04211
6.63335
1
1
1
1
1
1
1
1
1
1
1
1
1
1.00001
1.0001
1.00072
1.00617
1.04634
1.36294
2.79094
5.49032
7.48316
7.30071
7.00525
6.63693
1
1
1
1
1
1
1
1
1
1
1
1
1
1
1.00007
1.00039
1.00027
1.0183
1.05388
1.94464
4.11029
6.66528
7.32353
7.02231
6.66751
1
1
1
1
1
1
1
1
1
1
1
1
1
1
1.00001
1.00011
1.00082
1.00707
1.05177
1.40195
2.85727
5.33749
7.08629
6.9354
6.65176
1
1
1
1
1
1
1
1
1
1
1
1
1
1
1
1.00007
1.00034
0.999865
1.01935
1.04407
1.91188
3.97603
6.30658
6.96753
6.68178
1
1
1
1
1
1
1
1
1
1
1
1
1
1
1
1.00001
1.00012
1.0008
1.00704
1.04753
1.39562
2.75602
5.04737
6.7293
6.6318
1
1
1
1
1
1
1
1
1
1
1
1
1
1
1
1
1.00004
1.00019
0.999412
1.01573
1.05217
1.82611
3.70873
5.90883
6.67632
1
1
1
1
1
1
1
1
1
1
1
1
1
1
1
1
1
1.00009
1.00054
1.00585
1.03927
1.3409
2.53584
4.64853
6.32541
1
1
1
1
1
1
1
1
1
1
1
1
1
1
1
1
1
1.00002
1.00017
0.999843
1.01415
1.06563
1.7175
3.31127
5.42671
1
1
1
1
1
1
1
1
1
1
1
1
1
1
1
1
1
1.00001
1.00008
1.00049
1.00484
1.03306
1.2872
2.4439
4.20141
1
1
1
1
1
1
1
1
1
1
1
1
1
1
1
1
1
1
0.999986
0.999923
0.998677
1.00727
1.04061
1.48338
2.76705
1
1
1
1
1
1
1
1
1
1
1
1
1
1
1
1
1
1
1.00001
1.00004
1.00031
1.00201
1.01984
1.02352
1.81031
1
1
1
1
1
1
1
1
1
1
1
1
1
1
1
1
1
1
1
1.00001
0.999962
1.00058
1.00517
1.0331
1.32742
1
1
1
1
1
1
1
1
1
1
1
1
1
1
1
1
1
1
1
1
1.00001
1.00016
1.00095
1.01023
1.04517
1
1
1
1
1
1
1
1
1
1
1
1
1
1
1
1
1
1
1
1
1
1.00006
1.00038
1.00292
1.01812
1
1
1
1
1
1
1
1
1
1
1
1
1
1
1
1
1
1
1
1
1
1.00001
1.0001
1.00066
1.00536
1
1
1
1
1
1
1
1
1
1
1
1
1
1
1
1
1
1
1
1
1
1
1.00003
1.00015
1.00094
1
1
1
1
1
1
1
1
1
1
1
1
1
1
1
1
1
1
1
1
1
1
1.00001
1.00004
1.00049
1
1
1
1
1
1
1
1
1
1
1
1
1
1
1
1
1
1
1
1
1
1
1
1
1.0001
1
1
1
1
1
1
1
1
1
1
1
1
1
1
1
1
1
1
1
1
1
1
1
1
1.00003
1
1
1
1
1
1
1
1
1
1
1
1
1
1
1
1
1
1
1
1
1
1
1
1
1.00001
1
1
1
1
1
1
1
1
1
1
1
1
1
1
1
1
1
1
1
1
1
1
1
1
0.999999
1
1
1
1
1
1
1
1
1
1
1
1
1
1
1
1
1
1
1
1
1
1
1
1
1
1
1
1
1
1
1
1
1
1
1
1
1
1
1
1
1
1
1
1
1
1
1
1
1
1
1
1
1
1
1
1
1
1
1
1
1
1
1
1
1
1
1
1
1
1
1
1
1
1
1
1
1
1
1
1
1
1
1
1
1
1
1
1
1
1
1
1
1
1
1
1
1
1
1
1
1
1
1
1
1
1
1
1
1
1
1
1
1
1
1
1
1
1
1
1
1
1
1
1
1
2.70413
3.04158
3.82835
3.26347
3.49719
3.50949
3.31389
2.86442
2.52772
2.41758
2.42579
2.44866
2.45661
2.44435
2.35233
2.18359
2.06952
2.0277
2.02399
2.04001
2.05603
2.06107
2.06121
2.05669
2.04839
2.03638
2.02237
2.0123
2.00747
2.00621
2.0071
2.02365
2.05679
2.11305
2.20992
2.33901
2.48795
2.66751
2.88514
3.06395
3.26379
3.4781
3.67266
3.87193
4.08967
4.26289
4.37921
4.51991
4.63268
4.70627
4.79202
4.8518
4.87215
4.89271
4.89772
4.89455
4.87863
4.85734
4.82765
4.79226
4.75213
4.7091
4.6648
4.61865
4.57052
4.5211
4.471
4.4202
4.36876
4.31724
4.26617
4.21534
4.16482
4.1144
4.06407
4.01369
3.96344
3.91359
3.86447
3.81675
3.77043
3.72516
3.68083
3.63726
3.59454
3.55268
3.51189
3.47213
3.43361
3.39621
3.36021
3.32507
3.29118
3.25808
3.22629
3.19413
3.16254
3.12924
3.0966
3.07816
4.1137
3.96403
3.53681
3.24849
3.61985
3.65143
3.51988
2.91874
2.43232
2.29776
2.3431
2.42752
2.44264
2.39711
2.28602
2.16478
2.07711
2.03603
2.03809
2.04566
2.0585
2.06439
2.06454
2.06059
2.05542
2.04514
2.03349
2.01679
2.00725
2.00445
2.00709
2.0278
2.0637
2.11275
2.19592
2.30731
2.44208
2.6146
2.85233
3.06412
3.28097
3.49855
3.69329
3.86874
4.07513
4.2333
4.34311
4.49057
4.61256
4.69149
4.7761
4.83827
4.86387
4.88337
4.88758
4.88597
4.87021
4.84924
4.8191
4.78356
4.7442
4.70202
4.65878
4.61317
4.56515
4.51604
4.46652
4.41614
4.365
4.31373
4.26301
4.21262
4.16257
4.11245
4.06228
4.01192
3.96161
3.91171
3.86268
3.81502
3.76881
3.7236
3.67926
3.6357
3.59297
3.55117
3.51041
3.47072
3.43223
3.39493
3.35898
3.324
3.29013
3.25733
3.22552
3.19379
3.16188
3.12833
3.09372
3.07416
4.94398
4.29414
3.90838
3.55813
3.57348
3.52946
3.17644
2.62626
2.38738
2.36445
2.426
2.46583
2.47051
2.4586
2.40648
2.25027
2.06206
1.99619
1.99114
2.02016
2.05036
2.06302
2.0596
2.05459
2.04239
2.03214
2.01707
2.00782
2.00436
2.00497
2.00488
2.01991
2.05101
2.10398
2.19508
2.33066
2.4858
2.60805
2.84161
3.01404
3.17583
3.40628
3.63326
3.82453
4.05055
4.22172
4.33577
4.45553
4.5693
4.66204
4.73715
4.79494
4.82921
4.84779
4.85304
4.85478
4.8408
4.82323
4.79663
4.76469
4.72675
4.68561
4.64363
4.59985
4.55401
4.50636
4.45717
4.40699
4.35635
4.30629
4.25663
4.20712
4.15782
4.10848
4.05894
4.00917
3.9591
3.90905
3.85992
3.81241
3.76644
3.72136
3.67699
3.63331
3.59044
3.54859
3.50784
3.46818
3.42977
3.39266
3.35701
3.32242
3.28876
3.25622
3.22462
3.19335
3.16157
3.12776
3.09148
3.07026
5.36589
4.47626
4.0028
3.6464
3.53964
3.50735
3.24419
2.84186
2.55784
2.41022
2.38582
2.43366
2.44456
2.39947
2.26026
2.10153
2.03537
2.01586
2.02811
2.05334
2.06376
2.06715
2.06963
2.06314
2.05891
2.04648
2.04206
2.0174
2.00571
1.99667
1.99426
2.01458
2.05011
2.09085
2.16478
2.26013
2.38835
2.54567
2.76738
2.98959
3.17789
3.35612
3.57215
3.75532
3.93275
4.11129
4.24629
4.36837
4.49554
4.61915
4.67372
4.73725
4.77618
4.8091
4.8226
4.8225
4.81258
4.79715
4.77146
4.73936
4.70506
4.66757
4.62714
4.58435
4.53902
4.49199
4.4438
4.39504
4.34538
4.29578
4.24715
4.19924
4.15141
4.103
4.05361
4.00368
3.95375
3.90429
3.85572
3.80848
3.76252
3.7174
3.67277
3.62887
3.58602
3.54437
3.50396
3.46467
3.4265
3.38963
3.3543
3.32021
3.28691
3.25467
3.22321
3.19231
3.16087
3.12699
3.08933
3.06601
5.53041
4.72835
4.1283
3.77255
3.63912
3.53139
3.31765
2.88599
2.5182
2.3888
2.39075
2.44676
2.45099
2.40741
2.33523
2.2096
2.10434
2.03763
2.01318
2.02834
2.05047
2.06301
2.06055
2.0564
2.04287
2.03206
2.0154
2.00019
2.00149
2.00043
2.00199
2.00906
2.03025
2.08028
2.15537
2.25807
2.36026
2.48526
2.62565
2.82998
3.00186
3.20819
3.4485
3.66902
3.85771
4.03714
4.14236
4.25176
4.38056
4.50459
4.58422
4.66786
4.71972
4.73653
4.749
4.76263
4.76049
4.74636
4.72911
4.70464
4.67454
4.64071
4.60323
4.5623
4.51917
4.47381
4.42683
4.37898
4.3312
4.28349
4.23615
4.18916
4.14201
4.09442
4.04629
3.99751
3.94805
3.89856
3.85005
3.80302
3.75716
3.71207
3.66756
3.62377
3.58105
3.53972
3.49973
3.46074
3.42277
3.38619
3.35125
3.31774
3.28491
3.25296
3.22183
3.19118
3.15999
3.12609
3.08754
3.06266
5.6915
4.92363
4.34861
3.94283
3.74742
3.61808
3.45468
3.06115
2.68394
2.48257
2.44776
2.45723
2.45904
2.41393
2.30902
2.16158
2.07104
2.02942
2.02263
2.04212
2.06185
2.06558
2.06936
2.06159
2.05821
2.04207
2.03996
2.01437
2.01463
1.99244
2.00521
2.02231
2.04555
2.07533
2.12954
2.19235
2.22991
2.31324
2.40995
2.54844
2.71047
2.90915
3.13066
3.37724
3.63137
3.85634
4.04938
4.19748
4.27275
4.33287
4.43675
4.55379
4.63856
4.67329
4.70338
4.69876
4.69704
4.69749
4.69386
4.67646
4.64622
4.61122
4.57577
4.53959
4.50143
4.45833
4.41081
4.36161
4.31387
4.26843
4.22364
4.17877
4.13283
4.08534
4.03656
3.98761
3.93897
3.89058
3.84289
3.7962
3.7504
3.70529
3.66068
3.61699
3.57497
3.53462
3.49531
3.457
3.41947
3.38309
3.34849
3.3154
3.28306
3.25149
3.22047
3.18974
3.15847
3.12459
3.08561
3.05975
5.80906
5.08393
4.52629
4.13315
3.86437
3.70387
3.53447
3.25281
2.93728
2.63201
2.4764
2.4466
2.43989
2.41468
2.35791
2.23961
2.14013
2.06974
2.03995
2.03589
2.04687
2.05795
2.05924
2.05711
2.04634
2.03638
2.0258
2.01284
2.01446
2.02406
2.04127
2.0749
2.09289
2.11705
2.14408
2.16316
2.17682
2.20426
2.24766
2.31755
2.41576
2.53569
2.69377
2.87816
3.09613
3.36256
3.69777
4.03108
4.22378
4.29234
4.34045
4.39588
4.47327
4.56064
4.62604
4.64862
4.64083
4.63694
4.62632
4.61914
4.6078
4.58417
4.54912
4.51034
4.46918
4.42846
4.38742
4.34471
4.30005
4.25482
4.20991
4.16511
4.11974
4.07317
4.02538
3.97697
3.92887
3.88149
3.83462
3.78821
3.74235
3.69716
3.65282
3.60996
3.569
3.52959
3.49118
3.45351
3.41636
3.38022
3.34581
3.31299
3.28097
3.24965
3.21876
3.18801
3.15677
3.12278
3.08328
3.05674
5.88515
5.2235
4.67918
4.27733
4.00396
3.81699
3.62328
3.37499
3.10437
2.83665
2.61515
2.51148
2.47923
2.45709
2.41961
2.33082
2.20389
2.08518
2.01734
2.00953
2.02757
2.06056
2.07937
2.07451
2.06209
2.04158
2.04463
2.03299
2.0582
2.04311
2.14015
2.25184
2.28112
2.28528
2.27439
2.22855
2.18815
2.17064
2.17399
2.20371
2.23571
2.30283
2.38882
2.4882
2.63359
2.81282
3.07345
3.41041
3.80984
4.17781
4.36539
4.35876
4.36463
4.41359
4.49371
4.56604
4.60132
4.59392
4.57518
4.56595
4.55888
4.54489
4.51685
4.48416
4.44554
4.40459
4.36338
4.32248
4.28199
4.24062
4.19757
4.15279
4.10653
4.0594
4.0123
3.96523
3.91811
3.87119
3.82481
3.77893
3.73335
3.6884
3.64453
3.60264
3.56292
3.5247
3.48723
3.45024
3.4136
3.37778
3.34362
3.31114
3.27948
3.2483
3.21735
3.18641
3.15488
3.12054
3.08054
3.05351
5.94983
5.34265
4.82377
4.4135
4.14406
3.92255
3.74205
3.52183
3.27293
3.01182
2.78238
2.61213
2.53036
2.48701
2.44622
2.38514
2.28229
2.17193
2.07681
2.0317
2.0352
2.04787
2.06767
2.07066
2.06501
2.05462
2.04545
2.06435
2.0653
2.19898
2.35728
2.5798
2.62305
2.59736
2.5081
2.40139
2.30935
2.25213
2.20756
2.19048
2.19145
2.20966
2.2327
2.28202
2.34648
2.42798
2.58347
2.79514
3.07258
3.46306
3.96494
4.30343
4.41468
4.37772
4.36933
4.40973
4.46886
4.50971
4.53341
4.5266
4.50558
4.48328
4.46513
4.44489
4.41916
4.38257
4.34096
4.30056
4.26137
4.22197
4.18107
4.13763
4.09186
4.04436
3.99745
3.95166
3.90618
3.86067
3.8151
3.76964
3.72456
3.68027
3.63739
3.59659
3.55805
3.52086
3.48416
3.44779
3.41167
3.37608
3.34197
3.30954
3.27798
3.24675
3.21558
3.18426
3.1523
3.11755
3.0769
3.04925
6.01506
5.44757
4.95328
4.55421
4.27023
4.0248
3.84646
3.64627
3.40159
3.15619
2.92049
2.72119
2.59501
2.51932
2.47364
2.42614
2.34744
2.25052
2.15668
2.07856
2.04505
2.04928
2.05611
2.07255
2.0709
2.07795
2.07121
2.11689
2.19162
2.51112
2.89677
3.07719
3.04319
2.96033
2.78777
2.61892
2.48432
2.39205
2.32616
2.27497
2.22953
2.2064
2.20004
2.2095
2.22189
2.25277
2.32132
2.39587
2.53746
2.79355
3.14121
3.60587
4.14574
4.41695
4.41864
4.37542
4.35981
4.38442
4.43228
4.46011
4.46914
4.44627
4.42372
4.4019
4.37891
4.35247
4.32073
4.28463
4.24644
4.20656
4.16462
4.12022
4.07454
4.02815
3.98172
3.93681
3.89281
3.84868
3.80405
3.75889
3.71414
3.67049
3.62866
3.58907
3.55153
3.51525
3.47945
3.44393
3.40862
3.37377
3.33999
3.30757
3.27599
3.24463
3.21325
3.18168
3.14933
3.11402
3.07251
3.04405
6.06208
5.52939
5.05639
4.67299
4.36573
4.12327
3.93477
3.73705
3.51689
3.28717
3.05492
2.84802
2.68317
2.58181
2.5145
2.47877
2.41426
2.32471
2.23902
2.15716
2.09354
2.06676
2.06489
2.0646
2.07643
2.08096
2.12001
2.19696
2.48402
3.00218
3.60183
3.59497
3.53014
3.34845
3.11112
2.90242
2.74299
2.62176
2.52873
2.44373
2.36997
2.30504
2.25234
2.21078
2.19884
2.19844
2.21101
2.22533
2.28468
2.38846
2.54097
2.82934
3.24656
3.80587
4.28431
4.43553
4.37963
4.32307
4.31955
4.35073
4.39244
4.39255
4.37917
4.36443
4.33661
4.31216
4.28984
4.26155
4.22578
4.18571
4.14245
4.09796
4.05367
4.0094
3.96509
3.92153
3.87861
3.83541
3.79199
3.74823
3.70444
3.66176
3.62105
3.58258
3.54595
3.51036
3.47525
3.44038
3.40562
3.37116
3.33757
3.30512
3.27336
3.24172
3.21003
3.1781
3.1453
3.10946
3.06714
3.03789
6.11094
5.61116
5.1569
4.7704
4.45505
4.21641
4.00532
3.8218
3.62699
3.39915
3.18313
2.97392
2.79302
2.65841
2.57416
2.52015
2.45821
2.39222
2.31623
2.22905
2.15815
2.10404
2.0767
2.06552
2.07491
2.10687
2.18128
2.37488
2.87478
3.64092
4.1315
4.11831
3.98233
3.70503
3.4533
3.24836
3.07455
2.92043
2.78011
2.6624
2.56678
2.47927
2.39845
2.3254
2.26158
2.22261
2.20041
2.19134
2.19298
2.20162
2.25258
2.37082
2.58026
2.92053
3.39095
4.00072
4.36681
4.42136
4.33089
4.2759
4.26746
4.30432
4.32525
4.325
4.3095
4.28745
4.26459
4.23993
4.20546
4.16574
4.12299
4.07764
4.03411
3.99292
3.95169
3.91043
3.86815
3.8247
3.7804
3.73692
3.69474
3.65383
3.61416
3.57623
3.54009
3.50511
3.47066
3.43641
3.40221
3.36826
3.33485
3.30229
3.27036
3.2385
3.2066
3.1744
3.14126
3.10488
3.06164
3.03148
6.13906
5.66972
5.23945
4.8594
4.53946
4.29137
4.07878
3.90363
3.70868
3.49991
3.30285
3.09674
2.90609
2.75233
2.63972
2.56456
2.50709
2.4528
2.37234
2.29421
2.22652
2.15625
2.10137
2.07097
2.09174
2.15731
2.31786
2.7453
3.55821
4.35569
4.52577
4.42666
4.21007
3.97171
3.758
3.54893
3.35287
3.1804
3.02843
2.89741
2.78147
2.671
2.56877
2.48154
2.40604
2.34217
2.27647
2.22178
2.17406
2.14492
2.15331
2.18445
2.2512
2.39975
2.64547
3.03855
3.58505
4.17086
4.42873
4.37582
4.24247
4.20471
4.22232
4.25469
4.27298
4.25711
4.23158
4.20531
4.17206
4.1308
4.09172
4.05207
4.00849
3.96614
3.92762
3.88985
3.85088
3.81031
3.76773
3.72464
3.68335
3.64406
3.60595
3.56887
3.53314
3.49863
3.46478
3.43132
3.39797
3.36464
3.33145
3.29871
3.26639
3.23414
3.2018
3.16918
3.13562
3.0988
3.05475
3.02356
6.18332
5.73427
5.31797
4.95101
4.62878
4.3685
4.15568
3.96991
3.78552
3.60348
3.40397
3.20919
3.01554
2.85272
2.72303
2.62698
2.56097
2.4937
2.42693
2.37182
2.29642
2.21171
2.14398
2.11591
2.14734
2.28188
2.63101
3.37441
4.28037
4.779
4.70019
4.56576
4.39215
4.21351
4.01766
3.81104
3.61598
3.43608
3.27145
3.1202
2.98156
2.85815
2.75232
2.65361
2.56483
2.4757
2.38944
2.31312
2.24547
2.18686
2.14763
2.14441
2.14767
2.17783
2.26003
2.43675
2.7474
3.18645
3.79727
4.26832
4.3942
4.26009
4.15255
4.15549
4.19448
4.21173
4.19545
4.16763
4.13781
4.10218
4.0646
4.03155
3.99577
3.95552
3.91294
3.8735
3.83589
3.79732
3.75821
3.71724
3.67592
3.63636
3.59848
3.56184
3.52646
3.49222
3.45874
3.42573
3.39286
3.36
3.32706
3.29417
3.26142
3.22873
3.19598
3.163
3.12898
3.0917
3.04687
3.01453
6.21513
5.78565
5.3828
5.02445
4.70371
4.446
4.23409
4.04265
3.87177
3.69341
3.4963
3.31628
3.13491
2.95211
2.81212
2.70293
2.61374
2.53788
2.48732
2.41856
2.33729
2.24977
2.20961
2.21935
2.29011
2.56637
3.21787
4.16068
4.76518
4.84354
4.79151
4.69766
4.56364
4.40344
4.22117
4.03039
3.84094
3.65908
3.4889
3.33131
3.18402
3.05548
2.93601
2.82368
2.7119
2.61075
2.52705
2.45105
2.37701
2.30387
2.23109
2.18066
2.14145
2.114
2.13659
2.17716
2.28672
2.48328
2.84945
3.36513
4.00928
4.31554
4.30144
4.1759
4.10926
4.10229
4.11923
4.1326
4.11225
4.06892
4.02747
3.98958
3.957
3.92745
3.89397
3.85749
3.81956
3.78067
3.74155
3.70314
3.66451
3.62605
3.58864
3.55285
3.51853
3.48545
3.4531
3.42103
3.38883
3.35629
3.32312
3.28958
3.25608
3.22268
3.18922
3.1556
3.12104
3.08327
3.03761
3.00407
6.26569
5.85281
5.45357
5.10305
4.7799
4.51751
4.31178
4.12266
3.94947
3.77319
3.59585
3.41701
3.24183
3.0613
2.90162
2.77838
2.67702
2.59414
2.52563
2.4565
2.37842
2.32484
2.29918
2.35983
2.57558
3.13353
4.01361
4.71151
4.8997
4.88029
4.83505
4.76334
4.66157
4.53273
4.38375
4.21563
4.03975
3.86362
3.69131
3.52542
3.37154
3.23061
3.1006
2.97234
2.85689
2.76356
2.67401
2.58894
2.50283
2.42122
2.34136
2.26979
2.20851
2.15879
2.12401
2.09997
2.10781
2.16821
2.31761
2.57636
2.97783
3.56137
4.12593
4.32958
4.23109
4.08156
4.03084
4.03522
4.05553
4.0389
4.01181
3.97294
3.9288
3.89145
3.86278
3.83534
3.80533
3.77171
3.73173
3.68946
3.64982
3.61263
3.57661
3.5422
3.50937
3.47769
3.44647
3.41526
3.38374
3.35169
3.31866
3.2845
3.24985
3.21539
3.18116
3.14691
3.11192
3.07375
3.02735
2.99276
6.29296
5.91089
5.52316
5.18341
4.86376
4.5914
4.38932
4.19814
4.01892
3.85638
3.69253
3.51528
3.33401
3.15855
2.99493
2.85248
2.74067
2.65322
2.57026
2.49443
2.43674
2.41968
2.44592
2.61282
3.11496
3.96115
4.70361
4.92996
4.91554
4.88983
4.85702
4.80936
4.73476
4.63231
4.502
4.35499
4.1979
4.03398
3.86983
3.70448
3.54659
3.40515
3.26148
3.128
3.01477
2.91079
2.8085
2.71163
2.61918
2.52763
2.43665
2.36012
2.29279
2.22717
2.16325
2.10973
2.07212
2.07918
2.1038
2.18151
2.36373
2.69354
3.1429
3.79289
4.19037
4.25197
4.12783
3.98638
3.93908
3.95671
3.96639
3.96299
3.92516
3.87856
3.8402
3.80895
3.78173
3.75344
3.71944
3.67877
3.63631
3.59805
3.56424
3.53264
3.50181
3.47132
3.44101
3.41055
3.37946
3.34741
3.31391
3.27899
3.24331
3.20767
3.17235
3.13703
3.1012
3.06239
3.01511
2.97945
6.35156
5.98873
5.61299
5.26731
4.95274
4.6652
4.46204
4.27514
4.08883
3.92925
3.77646
3.61009
3.43342
3.24961
3.07464
2.92918
2.81146
2.7128
2.6148
2.54376
2.52325
2.54724
2.69206
3.1272
3.94771
4.76097
5.01968
4.97873
4.9308
4.89865
4.87216
4.83565
4.77829
4.69555
4.58902
4.4627
4.32163
4.16878
4.00874
3.84874
3.70416
3.55111
3.40755
3.28322
3.16443
3.04306
2.92825
2.82199
2.7228
2.62386
2.53385
2.45386
2.37949
2.30917
2.24506
2.18414
2.12263
2.07414
2.04168
2.05102
2.09329
2.19183
2.4326
2.81318
3.32654
3.94702
4.22444
4.16539
3.99803
3.90179
3.86038
3.8712
3.86588
3.8465
3.82154
3.79027
3.75799
3.72549
3.6954
3.66315
3.62626
3.5881
3.5536
3.52346
3.49502
3.46636
3.43692
3.40646
3.37476
3.34201
3.30782
3.27181
3.23483
3.19802
3.1618
3.12552
3.08886
3.04935
3.00127
2.96476
6.38088
6.06078
5.71938
5.36995
5.05906
4.76137
4.53424
4.35191
4.16097
3.99052
3.84191
3.68951
3.52573
3.34986
3.16576
3.01191
2.88503
2.76244
2.66388
2.62284
2.64461
2.77732
3.16582
3.94226
4.83355
5.17193
5.10519
5.02192
4.96609
4.92994
4.89552
4.8554
4.80534
4.73887
4.65562
4.54985
4.42418
4.28585
4.1335
3.98474
3.83046
3.67738
3.5503
3.41767
3.28618
3.15789
3.04115
2.92868
2.82377
2.72278
2.63261
2.54614
2.4666
2.39387
2.32245
2.25967
2.19916
2.13734
2.07544
2.03408
2.00361
2.0202
2.10024
2.23573
2.5245
2.95891
3.53554
4.00878
4.15281
4.03846
3.8879
3.79712
3.78571
3.78496
3.7804
3.77024
3.74811
3.71343
3.67711
3.6439
3.61153
3.57804
3.54545
3.51473
3.48541
3.45653
3.42769
3.3985
3.36762
3.33475
3.29982
3.26232
3.22345
3.18528
3.1481
3.11088
3.07331
3.03342
2.98457
2.94708
6.41365
6.11414
5.79094
5.45993
5.15736
4.85925
4.60133
4.41702
4.23225
4.05446
3.89835
3.75041
3.59945
3.43202
3.26088
3.10471
2.96518
2.81359
2.75563
2.75855
2.86762
3.22257
3.9535
4.9312
5.37049
5.29094
5.18753
5.09696
5.02641
4.97135
4.92209
4.87415
4.82343
4.76597
4.69445
4.60835
4.50334
4.3845
4.25036
4.1073
3.95158
3.81149
3.667
3.52085
3.38616
3.26867
3.15435
3.04109
2.93103
2.82617
2.7275
2.63772
2.55599
2.47814
2.4064
2.34399
2.27912
2.21299
2.14612
2.08106
2.02196
1.99314
1.97664
2.00833
2.12011
2.30952
2.62846
3.10308
3.72286
4.03418
4.0227
3.88498
3.76755
3.71148
3.70803
3.71206
3.71339
3.70473
3.67514
3.63421
3.59437
3.56106
3.53283
3.50519
3.47712
3.44753
3.417
3.38699
3.35646
3.32407
3.28915
3.25117
3.2108
3.17051
3.1318
3.09382
3.05514
3.01511
2.96585
2.9274
6.40156
6.16041
5.87648
5.55386
5.24481
4.95247
4.67021
4.47272
4.29679
4.12404
3.96312
3.81175
3.65922
3.50115
3.32783
3.17941
3.02931
2.9262
2.88218
2.98218
3.30035
4.00286
5.02762
5.54644
5.48773
5.39069
5.28709
5.1864
5.09601
5.02067
4.95815
4.90105
4.84564
4.78738
4.7226
4.64696
4.55816
4.45317
4.33653
4.20417
4.06991
3.92607
3.77825
3.63952
3.50635
3.38039
3.26011
3.14769
3.03791
2.93129
2.82676
2.73178
2.64876
2.57159
2.50604
2.43577
2.36255
2.29206
2.22295
2.15507
2.08663
2.02695
1.98702
1.96912
1.98111
2.01946
2.1554
2.3896
2.75519
3.26638
3.77667
3.96708
3.90339
3.76632
3.67729
3.64495
3.65873
3.66685
3.6591
3.63387
3.59421
3.55243
3.51773
3.48919
3.46209
3.43411
3.40362
3.37293
3.3418
3.30901
3.27403
3.23554
3.194
3.15209
3.1122
3.07367
3.03413
2.99308
2.94345
2.90438
6.35541
6.19154
5.92368
5.62635
5.3264
5.04773
4.75701
4.52586
4.35353
4.17908
4.02249
3.8729
3.72679
3.57657
3.40658
3.22998
3.11914
3.07794
3.12201
3.40393
4.07913
5.11237
5.70499
5.68447
5.61107
5.50429
5.39016
5.28081
5.17909
5.08363
4.99776
4.92721
4.86514
4.80386
4.73973
4.66935
4.58998
4.49913
4.39683
4.28282
4.15877
4.0258
3.89106
3.7554
3.62014
3.48984
3.36606
3.24722
3.13298
3.02226
2.91589
2.81673
2.72598
2.64611
2.57618
2.49848
2.42633
2.35826
2.29074
2.21734
2.14604
2.08085
2.01861
1.97692
1.95602
1.94443
1.9761
2.0508
2.19969
2.47602
2.88477
3.44856
3.80669
3.85408
3.76866
3.67543
3.62223
3.60617
3.61442
3.60784
3.58536
3.55037
3.51045
3.47433
3.44442
3.41798
3.39011
3.36042
3.33025
3.29614
3.25829
3.21778
3.1747
3.13168
3.09064
3.05136
3.01148
2.96901
2.91887
2.87938
5.78883
6.19501
5.94578
5.67868
5.39454
5.12866
4.85504
4.59123
4.41901
4.24719
4.07217
3.9274
3.79519
3.66008
3.49823
3.33557
3.26848
3.30815
3.55785
4.19903
5.23956
5.91792
5.92305
5.85439
5.73096
5.60459
5.49229
5.38482
5.27404
5.16069
5.05604
4.96678
4.89252
4.82329
4.75594
4.68559
4.61129
4.52871
4.43786
4.33613
4.22502
4.10634
3.98129
3.85203
3.72143
3.59225
3.46546
3.34179
3.22318
3.1107
3.00657
2.90714
2.81736
2.73513
2.65415
2.57362
2.5021
2.4312
2.35629
2.27776
2.203
2.1366
2.08244
2.03859
1.99098
1.95256
1.92568
1.94112
1.96878
2.06608
2.25615
2.59313
3.02745
3.56016
3.77624
3.77448
3.6955
3.61818
3.56936
3.55313
3.54756
3.53242
3.50134
3.46261
3.42611
3.39565
3.36903
3.33962
3.30874
3.27693
3.24032
3.19736
3.15064
3.10464
3.06236
3.02298
2.9844
2.9416
2.89049
2.85059
4.64527
5.90011
5.90165
5.71174
5.47111
5.20494
4.95095
4.68381
4.47778
4.321
4.14763
3.99067
3.86137
3.73185
3.58744
3.50234
3.51329
3.741
4.36323
5.39235
6.15849
6.17136
6.08742
5.94386
5.81095
5.70079
5.59317
5.4806
5.35854
5.23591
5.11968
5.01492
4.92393
4.84388
4.76927
4.69568
4.62062
4.54207
4.4582
4.36699
4.26874
4.16196
4.04934
3.9308
3.80949
3.68567
3.56128
3.439
3.31908
3.20445
3.09602
2.99627
2.90423
2.81825
2.73341
2.65909
2.58444
2.50344
2.41685
2.33346
2.26143
2.20034
2.15146
2.09982
2.04584
1.99344
1.9503
1.92
1.90119
1.91395
1.96877
2.08929
2.34761
2.70194
3.20288
3.63431
3.782
3.72428
3.62068
3.54584
3.50724
3.49321
3.48044
3.45583
3.42018
3.3818
3.34738
3.316
3.28493
3.25159
3.21645
3.17645
3.13002
3.08013
3.03413
2.99278
2.95509
2.91312
2.86091
2.82036
3.54475
5.29611
5.95832
5.79402
5.56468
5.30146
5.05217
4.80143
4.55923
4.39891
4.24081
4.07185
3.9292
3.81135
3.73355
3.75013
3.96586
4.58926
5.62316
6.48079
6.52807
6.40965
6.20993
6.04863
5.93736
5.82872
5.71101
5.58394
5.45291
5.32489
5.202
5.0847
4.97599
4.87822
4.7912
4.71002
4.63165
4.55252
4.47106
4.38575
4.29547
4.19998
4.09837
3.99159
3.87918
3.76314
3.6441
3.52311
3.40387
3.28705
3.17541
3.07136
2.97419
2.88168
2.79783
2.72467
2.64451
2.55985
2.47078
2.38633
2.31131
2.24593
2.18824
2.13398
2.08307
2.0353
1.98502
1.93964
1.89891
1.8747
1.87746
1.89135
1.9677
2.13359
2.42762
2.86863
3.42222
3.67943
3.68901
3.61303
3.52036
3.45604
3.42348
3.40743
3.38853
3.36184
3.32902
3.29214
3.25433
3.22156
3.18726
3.14869
3.10198
3.04936
2.99977
2.95698
2.92
2.88095
2.82943
2.78883
2.43176
4.16221
5.53136
5.81916
5.61502
5.39072
5.14885
4.91283
4.66965
4.47297
4.33248
4.15378
4.00311
3.93341
3.97296
4.21128
4.85652
5.93027
6.84154
6.93025
6.73263
6.49644
6.31732
6.19012
6.06784
5.9387
5.80262
5.66722
5.53534
5.40511
5.27543
5.14855
5.02775
4.91558
4.81455
4.72258
4.63694
4.5548
4.47213
4.38902
4.30369
4.21564
4.1237
4.02716
3.92544
3.81908
3.70821
3.59399
3.47811
3.36326
3.25327
3.15079
3.05714
2.96492
2.87778
2.79351
2.71055
2.62976
2.54615
2.46242
2.37949
2.30708
2.24484
2.1927
2.14497
2.09911
2.04929
1.99975
1.94727
1.89896
1.8634
1.84129
1.82558
1.88578
2.01366
2.24812
2.58557
3.05914
3.49977
3.64527
3.60406
3.50481
3.41453
3.36413
3.34601
3.32513
3.29821
3.26801
3.2324
3.19508
3.15939
3.11818
3.06704
3.01318
2.96434
2.92265
2.88506
2.84825
2.79832
2.75743
1.58743
2.83267
4.54285
5.61208
5.6483
5.48576
5.27197
5.03338
4.79966
4.56623
4.37863
4.22992
4.13606
4.17194
4.44407
5.14872
6.30202
7.28308
7.45531
7.17139
6.83689
6.61875
6.48467
6.35222
6.2109
6.06328
5.91549
5.77211
5.63223
5.49457
5.35925
5.22684
5.09806
4.97428
4.85833
4.75182
4.65348
4.56238
4.47603
4.39269
4.30893
4.22502
4.13946
4.0511
3.95909
3.86197
3.76036
3.65403
3.54436
3.43515
3.32793
3.22625
3.13006
3.03836
2.94682
2.85535
2.7703
2.68393
2.59828
2.51044
2.42855
2.35713
2.29583
2.24053
2.18998
2.14035
2.092
2.04282
1.98978
1.93755
1.88496
1.84105
1.81984
1.82035
1.85472
1.92483
2.05718
2.37104
2.78463
3.26925
3.51992
3.53317
3.4642
3.37071
3.29746
3.25707
3.24635
3.22604
3.20323
3.16825
3.12546
3.07884
3.02623
2.97289
2.92622
2.88622
2.84859
2.81303
2.76505
2.72441
1.13647
1.85931
3.37411
4.98149
5.68712
5.58579
5.37809
5.1601
4.92841
4.68279
4.44993
4.34999
4.38129
4.669
5.44002
6.75959
7.71206
7.84225
7.55524
7.20118
6.95776
6.80299
6.6481
6.48557
6.32109
6.16233
6.01071
5.86228
5.71625
5.57218
5.43054
5.29117
5.1556
5.02401
4.89778
4.7793
4.66884
4.56636
4.4716
4.38281
4.29934
4.21729
4.13582
4.05294
3.96766
3.87849
3.78443
3.68628
3.5846
3.48184
3.37948
3.27927
3.18208
3.08914
2.99909
2.91115
2.82363
2.73513
2.64482
2.55622
2.47596
2.4069
2.34589
2.28877
2.23609
2.1847
2.13617
2.08698
2.03824
1.98697
1.93906
1.89336
1.84857
1.81574
1.80419
1.79971
1.83627
1.94855
2.14197
2.45513
2.92057
3.33608
3.48671
3.45662
3.36045
3.26038
3.19572
3.1622
3.13995
3.11853
3.08836
3.04783
2.99486
2.93793
2.89025
2.8504
2.81095
2.77574
2.72876
2.68752
1.03696
1.31366
2.41782
3.94994
5.25062
5.62009
5.46106
5.24129
4.9944
4.74533
4.59376
4.60753
4.90706
5.75959
7.23351
8.29433
8.33284
8.0036
7.63385
7.37691
7.19696
7.01151
6.82466
6.6362
6.45625
6.28528
6.12201
5.96454
5.81171
5.66249
5.51563
5.37154
5.2296
5.09071
4.95618
4.82794
4.7066
4.59204
4.48499
4.38708
4.29872
4.21757
4.13763
4.05732
3.97588
3.89129
3.80329
3.71233
3.61895
3.52527
3.43165
3.3393
3.24792
3.15792
3.06891
2.97985
2.89056
2.79946
2.70773
2.61839
2.53657
2.46478
2.40113
2.34368
2.28935
2.23795
2.18865
2.1389
2.08823
2.03652
1.98762
1.94157
1.89657
1.84928
1.81172
1.78262
1.78596
1.77541
1.84123
2.00397
2.2614
2.62641
3.06997
3.32762
3.36436
3.31753
3.21758
3.13335
3.07745
3.04822
3.02427
2.99129
2.9502
2.90035
2.85301
2.81299
2.7742
2.73507
2.68703
2.64571
1.00963
1.05688
1.49682
2.57913
4.09279
5.16773
5.33892
5.1785
4.97264
4.82004
4.8376
5.16454
6.08625
7.70175
8.88188
8.78117
8.44122
8.04078
7.76281
7.57494
7.38314
7.18427
6.97859
6.77182
6.57428
6.3884
6.21261
6.04535
5.88364
5.7263
5.57278
5.42253
5.27548
5.13181
4.99223
4.85769
4.7293
4.60668
4.49036
4.38324
4.28815
4.20333
4.1243
4.04621
3.96737
3.88689
3.80358
3.71776
3.63143
3.54515
3.46019
3.37459
3.28902
3.20252
3.11476
3.0262
2.93638
2.84398
2.75202
2.66379
2.58276
2.51108
2.4478
2.38943
2.33494
2.28288
2.23208
2.18256
2.13218
2.08107
2.0316
1.9864
1.94338
1.90316
1.86253
1.82072
1.78605
1.76348
1.75189
1.78457
1.85267
2.02662
2.31757
2.75383
3.10099
3.25537
3.23527
3.15759
3.07039
2.99986
2.95146
2.92071
2.88978
2.85975
2.82109
2.77499
2.73083