/*--------------------------------*- C++ -*----------------------------------*\
| =========                 |                                                 |
| \\      /  F ield         | OpenFOAM: The Open Source CFD Toolbox           |
|  \\    /   O peration     | Version:  v2106                                 |
|   \\  /    A nd           | Website:  www.openfoam.com                      |
|    \\/     M anipulation  |                                                 |
\*---------------------------------------------------------------------------*/
FoamFile
{
    version     2.0;
    format      ascii;
    arch        "LSB;label=32;scalar=64";
    class       surfaceScalarField;
    location    "19";
    object      phi;
}
// * * * * * * * * * * * * * * * * * * * * * * * * * * * * * * * * * * * * * //

dimensions      [1 0 -1 0 0 0 0];

oriented        oriented;

internalField   nonuniform List<scalar> 
10325
(
0.0084507
-3.93294e-17
0.0084507
5.45354e-17
0.0084507
6.21546e-16
0.0084507
3.54458e-15
0.0084507
4.99867e-14
0.0084507
3.00371e-13
0.0084507
3.99493e-12
0.0084507
2.59216e-11
0.00845067
3.14535e-10
0.00845039
2.28117e-09
0.00844791
2.42601e-08
0.00842633
2.06442e-07
0.00824756
1.84807e-06
0.00739701
2.05945e-05
0.00641261
6.16755e-05
0.00603427
0.00102399
0.00678763
0.000549356
0.00619961
0.000586711
0.00550238
0.000645618
0.00484979
0.000681864
0.00407819
0.000775365
0.00320891
0.000873984
0.00224692
0.000972587
0.00118935
0.00106617
0.00119235
0.0084507
-5.7273e-17
0.0084507
7.83878e-17
0.0084507
1.16373e-15
0.0084507
4.44737e-15
0.0084507
9.39741e-14
0.0084507
3.72613e-13
0.0084507
7.5234e-12
0.0084507
3.21847e-11
0.00845067
5.89383e-10
0.00845041
2.96893e-09
0.00844805
4.46595e-08
0.00842747
2.9753e-07
0.00825799
3.26717e-06
0.00742558
3.48596e-05
0.00646398
8.25549e-05
0.00609101
0.00194539
0.00691716
0.00112978
0.00630549
0.00119729
0.00558244
0.00131623
0.00486167
0.00143296
0.00404708
0.00159425
0.00315638
0.00177009
0.00217739
0.00196194
0.00111349
0.00213935
0.00230983
0.0084507
-4.94125e-17
0.0084507
7.54334e-17
0.0084507
1.72177e-15
0.0084507
1.54659e-15
0.0084507
1.42933e-13
0.0084507
1.27432e-13
0.0084507
1.14424e-11
0.0084507
8.91575e-12
0.00845067
8.91508e-10
0.00845043
1.37246e-09
0.00844826
6.67229e-08
0.00842916
2.48326e-07
0.00827278
4.61543e-06
0.0074645
4.56594e-05
0.00649967
9.28172e-05
0.00608361
0.00269963
0.00700344
0.00183502
0.00635419
0.001851
0.00557325
0.00204667
0.00483292
0.00221293
0.0040322
0.00240358
0.00314497
0.0026648
0.00217849
0.0029436
0.00111788
0.00321455
0.0034386
0.0084507
-4.86536e-17
0.0084507
8.42425e-17
0.0084507
2.21028e-15
0.0084507
-5.23133e-15
0.0084507
1.92776e-13
0.0084507
-2.47873e-13
0.0084507
1.61118e-11
0.0084507
-4.43958e-11
0.00845068
1.27283e-09
0.00845046
-5.98108e-09
0.00844854
9.01504e-08
0.00843141
-9.62285e-08
0.00829236
5.90638e-06
0.00751787
5.39444e-05
0.00652851
0.000115213
0.00603779
0.00317377
0.00705508
0.0027638
0.00638518
0.00252576
0.00560802
0.00277681
0.00487508
0.00298188
0.00406381
0.00322014
0.00318038
0.00355453
0.00221569
0.00392152
0.00114229
0.00430165
0.00459059
0.0084507
-5.85469e-17
0.0084507
1.07851e-16
0.0084507
1.11112e-15
0.0084507
-2.58751e-14
0.0084507
3.10888e-13
0.0084507
-5.53252e-13
0.0084507
2.20338e-11
0.0084507
-2.62822e-11
0.00845068
1.7136e-09
0.00845048
-7.95349e-09
0.00844883
1.30143e-07
0.00843413
-1.0918e-06
0.00831543
6.99865e-06
0.00758706
5.94476e-05
0.00657188
0.000148029
0.00602758
0.00340774
0.00716144
0.00384072
0.00648129
0.00320872
0.00570182
0.00351419
0.00496691
0.0037623
0.00419469
0.00400461
0.00329519
0.00446717
0.00232103
0.0049145
0.00120398
0.00543662
0.00580928
0.0084507
-1.26391e-16
0.0084507
1.86429e-16
0.0084507
-5.04311e-15
0.0084507
-3.15005e-14
0.0084507
1.84615e-13
0.0084507
-1.16078e-12
0.0084507
2.9494e-11
0.0084507
3.5332e-11
0.00845068
1.91535e-09
0.00845052
1.3776e-09
0.00844918
1.35166e-07
0.0084361
-5.90933e-07
0.00833876
6.90287e-06
0.00767299
5.85282e-05
0.0066666
0.000149172
0.00627211
0.00333423
0.00738871
0.00501875
0.00665046
0.00394153
0.00585504
0.00426561
0.00508718
0.004575
0.00431095
0.00478697
0.00340924
0.00537738
0.00242074
0.00592011
0.00127079
0.00660925
0.00710591
0.0084507
-8.5137e-17
0.0084507
5.19062e-16
0.0084507
4.46881e-16
0.0084507
3.70633e-14
0.0084507
-5.64306e-13
0.0084507
-1.20406e-12
0.0084507
2.24021e-11
0.0084507
2.60384e-11
0.00845069
1.24896e-09
0.00845056
5.12937e-09
0.00844974
7.942e-08
0.00843855
5.28124e-07
0.00836367
5.40124e-06
0.00777845
4.95234e-05
0.00676857
0.000142113
0.00666079
0.0027421
0.00794296
0.00616939
0.00709154
0.00479607
0.00623897
0.00507023
0.00543179
0.00544469
0.00467817
0.00555676
0.00379817
0.00627963
0.00269548
0.00705699
0.00148648
0.00784348
0.00862665
0.0084507
7.76289e-17
0.0084507
-4.58726e-16
0.0084507
3.15337e-15
0.0084507
3.85071e-14
0.0084507
4.97534e-14
0.0084507
1.64538e-12
0.0084507
-5.44531e-12
0.0084507
1.19972e-11
0.0084507
7.63326e-10
0.00845057
5.12931e-09
0.00844999
5.9233e-08
0.00844074
4.76361e-07
0.00838067
4.71779e-06
0.00785811
4.37814e-05
0.00679041
0.000204754
0.00668091
0.00208424
0.00841921
0.00690424
0.00756038
0.00565763
0.00675651
0.00583195
0.00592004
0.00634555
0.0050651
0.00644016
0.00404483
0.00730852
0.00297541
0.00816058
0.00170572
0.00914821
0.0104131
0.0084507
1.20753e-16
0.0084507
-1.18571e-15
0.0084507
-8.495e-16
0.0084507
2.99413e-14
0.0084507
1.21875e-13
0.0084507
2.09203e-12
0.0084507
-3.21234e-11
0.0084507
8.71853e-12
0.0084507
5.45018e-10
0.00845059
5.10838e-09
0.00845019
4.79022e-08
0.00844268
4.30871e-07
0.00839736
4.02166e-06
0.00795763
3.69059e-05
0.00692637
0.000236257
0.00661343
0.00160648
0.0085755
0.0073085
0.00792386
0.00631205
0.0072126
0.00650222
0.0065065
0.00709099
0.00565763
0.00734008
0.00477799
0.00824173
0.00375783
0.00924136
0.00250613
0.0104529
0.0130895
0.0084507
2.76743e-17
0.0084507
1.25076e-15
0.0084507
7.61519e-15
0.0084507
-3.48612e-15
0.0084507
3.40849e-13
0.0084507
1.6402e-12
0.0084507
2.9226e-11
0.0084507
1.91527e-10
0.0084507
2.72253e-11
0.00845059
8.22677e-09
0.00845039
2.6466e-08
0.00844352
5.53547e-07
0.00841124
3.237e-06
0.00809793
-5.12798e-05
0.0071407
0.000259262
0.00659385
0.00133115
0.00853898
0.00764507
0.00823393
0.00661493
0.00777088
0.00696819
0.00711581
0.00778547
0.00629859
0.00818008
0.00543064
0.00913843
0.00439555
0.0103268
0.00271373
0.0121645
0.0163206
0.0084507
7.77102e-17
0.0084507
4.13786e-16
0.0084507
6.99172e-15
0.0084507
-3.25987e-15
0.0084507
3.16562e-13
0.0084507
2.50536e-12
0.0084507
7.41824e-12
0.0084507
1.77787e-10
0.0084507
-1.18834e-10
0.00845064
7.72303e-09
0.00845041
1.68661e-08
0.00844622
5.01673e-07
0.00842014
2.61604e-06
0.00814581
-5.52436e-05
0.00723235
0.000248936
0.0065665
0.00112967
0.00825084
0.00768952
0.0084073
0.00690158
0.00817246
0.00725693
0.00766593
0.00828244
0.0069785
0.00891323
0.00628826
0.00988593
0.00593172
0.0108836
0.00582436
0.0126472
0.0138735
0.00908969
0.0084507
-8.59772e-17
0.0084507
2.46304e-16
0.0084507
2.15575e-15
0.0084507
1.66271e-14
0.0084507
2.1812e-13
0.0084507
3.08509e-13
0.0084507
3.10515e-12
0.0084507
3.24575e-11
0.0084507
1.8287e-10
0.00845069
2.76158e-09
0.00845037
1.17308e-08
0.00844893
2.54413e-07
0.00842751
6.95118e-07
0.00820456
2.07947e-05
0.00735265
0.000196414
0.00662679
0.00092968
0.00769683
0.00762305
0.0082563
0.00742419
0.00816633
0.00740863
0.00809126
0.00836178
0.00768487
0.00933509
0.00735135
0.0102332
0.00751287
0.0107797
0.00802645
0.0119131
0.0123234
0.0104122
0.0084507
-1.17121e-16
0.0084507
9.46508e-17
0.0084507
-3.79471e-18
0.0084507
-1.22786e-17
0.0084507
9.58728e-14
0.0084507
3.5022e-14
0.0084507
3.25872e-12
0.0084507
1.46361e-11
0.0084507
1.08016e-10
0.00845068
2.73151e-09
0.0084505
5.83178e-09
0.00844902
2.07438e-07
0.00843518
2.95569e-08
0.00833317
1.34147e-05
0.00768694
0.000130397
0.00690426
0.00065952
0.00764153
0.00676394
0.00850467
0.00861608
0.00811551
0.00772006
0.00813136
0.00832893
0.00821157
0.0092792
0.00834511
0.0101244
0.0086135
0.0106601
0.00920747
0.011283
0.0113696
0.0107759
0.0084507
-2.06541e-17
0.0084507
3.38813e-17
0.0084507
-9.23767e-16
0.0084507
-1.98596e-15
0.0084507
5.44356e-14
0.0084507
-3.05701e-13
0.0084507
1.92367e-12
0.0084507
-1.36111e-11
0.0084507
4.00697e-11
0.0084507
2.04221e-09
0.00845057
8.19221e-09
0.00844989
1.28768e-07
0.00843983
8.36921e-07
0.00837704
9.142e-06
0.00786555
8.31104e-05
0.00704778
0.000396168
0.00777667
0.00500713
0.00918046
0.00991041
0.00868342
0.00825898
0.00842269
0.00852517
0.00855125
0.00915333
0.00888328
0.00989027
0.00934766
0.0103509
0.0099144
0.0108209
0.0105267
0.011235
0.0084507
1.01915e-17
0.0084507
3.84621e-17
0.0084507
1.69239e-15
0.0084507
8.73374e-15
0.0084507
3.28348e-15
0.0084507
3.76254e-13
0.0084507
1.64888e-12
0.0084507
3.67313e-11
0.0084507
2.31294e-10
0.00845071
2.25103e-11
0.00845054
1.28562e-08
0.00845047
4.41272e-08
0.00844327
-1.40287e-06
0.00840977
6.45326e-06
0.00810441
-7.35501e-05
0.00718563
0.000388612
0.00768826
0.00332814
0.00999788
0.0104757
0.00943142
0.00890287
0.00908521
0.00898599
0.00899433
0.00925829
0.00922777
0.00971792
0.00969571
0.00998221
0.0102861
0.0103204
0.00988589
0.0113028
0.0084507
-3.79471e-19
0.0084507
4.5916e-17
0.0084507
1.04476e-15
0.0084507
7.04891e-15
0.0084507
1.93535e-14
0.0084507
-4.67721e-14
0.0084507
8.45983e-13
0.0084507
1.95774e-11
0.0084507
1.39724e-10
0.0084507
1.63411e-10
0.00845066
-7.71926e-09
0.0084503
4.34438e-08
0.00844674
-1.56438e-06
0.00841999
4.84359e-06
0.00818023
-9.16504e-05
0.00732237
0.00034732
0.00736569
0.00209434
0.0100834
0.00933762
0.0102085
0.0097199
0.00986416
0.00954063
0.0095782
0.00953477
0.0096034
0.00967029
0.00990631
0.00973631
0.0104725
0.00985889
0.00948536
0.0111888
0.0084507
4.96022e-18
0.0084507
1.00722e-16
0.0084507
5.54569e-17
0.0084507
5.53271e-15
0.0084507
7.97631e-15
0.0084507
7.00475e-14
0.0084507
1.86448e-12
0.0084507
-3.46077e-12
0.0084507
6.08464e-11
0.0084507
2.88592e-10
0.00845066
-9.89696e-09
0.00845072
3.459e-08
0.00844908
8.97191e-08
0.00842974
2.38505e-06
0.00826134
1.80898e-05
0.00755863
0.000195462
0.00724318
0.0012141
0.00905498
0.00761353
0.0103755
0.0103561
0.0101544
0.00985136
0.00996921
0.00965002
0.00995186
0.00965521
0.0101686
0.00958523
0.0105737
0.00953464
0.00919788
0.0111104
0.0084507
5.66496e-18
0.0084507
2.96529e-17
0.0084507
1.63715e-16
0.0084507
1.85884e-15
0.0084507
-1.5323e-15
0.0084507
1.38329e-13
0.0084507
1.16813e-12
0.0084507
8.56273e-13
0.0084507
6.26539e-11
0.0084507
2.79126e-10
0.00845069
9.86041e-10
0.00845052
2.41096e-08
0.00845013
-2.6211e-09
0.00844058
6.28686e-07
0.00839039
9.13102e-06
0.00799488
8.20449e-06
0.0073125
0.00079971
0.00850822
0.00524143
0.0108821
0.0108471
0.0107111
0.0100386
0.0106079
0.00989118
0.0105158
0.00976282
0.0105855
0.00959277
0.0108009
0.00941252
0.00898338
0.0111857
0.0084507
9.48677e-19
0.0084507
1.04626e-17
0.0084507
1.2116e-17
0.0084507
4.36879e-16
0.0084507
-6.52608e-16
0.0084507
2.17632e-14
0.0084507
3.02209e-13
0.0084507
2.5037e-12
0.0084507
2.20253e-11
0.0084507
1.22719e-10
0.0084507
-9.23027e-11
0.00845064
1.52621e-08
0.0084501
5.97116e-08
0.0084455
1.72369e-07
0.00840824
7.42113e-06
0.00812972
-3.22376e-05
0.00737794
0.000517556
0.00816541
0.00316845
0.0112395
0.00993538
0.0114311
0.0105409
0.0112732
0.0102971
0.0110825
0.00999756
0.0110072
0.00970194
0.0110668
0.00940146
0.00892599
0.0112576
0.0084507
2.05998e-18
0.0084507
4.60786e-18
0.0084507
6.59737e-17
0.0084507
3.94026e-16
0.0084507
6.06676e-15
0.0084507
4.2191e-14
0.0084507
4.61243e-14
0.0084507
2.2719e-12
0.0084507
2.95838e-12
0.0084507
1.33168e-10
0.0084507
1.07361e-09
0.00845072
1.73864e-09
0.00845024
5.38636e-08
0.0084499
2.43554e-07
0.00842678
3.14971e-06
0.00825738
3.90884e-05
0.00778029
-3.11669e-05
0.00799794
0.00178427
0.0104476
0.00806395
0.0118476
0.0111399
0.011658
0.0107379
0.0114599
0.0101479
0.0113603
0.00979381
0.0113779
0.00942478
0.0089349
0.0114801
0.0084507
9.48677e-19
0.0084507
1.78893e-18
0.0084507
1.51517e-17
0.0084507
6.44016e-17
0.0084507
3.48888e-15
0.0084507
1.6663e-14
0.0084507
3.5302e-14
0.0084507
9.75629e-13
0.0084507
-1.43982e-12
0.0084507
7.01943e-11
0.0084507
6.5451e-10
0.00845069
7.37141e-10
0.00845059
2.11883e-08
0.00844968
6.60296e-08
0.00844224
1.27352e-06
0.00838386
2.31306e-05
0.00802636
-0.000166001
0.00745144
0.00107668
0.00905919
0.00523682
0.0119554
0.0110969
0.011863
0.010874
0.0118512
0.0103479
0.0117314
0.00993672
0.0116932
0.00949292
0.00899101
0.0117324
0.0084507
6.77626e-19
0.0084507
1.84314e-18
0.0084507
3.14961e-17
0.0084507
3.03251e-16
0.0084507
1.15359e-16
0.0084507
1.3482e-14
0.0084507
3.99898e-14
0.0084507
7.94662e-13
0.0084507
5.11798e-12
0.0084507
7.53594e-12
0.0084507
3.40853e-10
0.0084507
1.04997e-09
0.00845053
1.91325e-08
0.00845059
1.62712e-07
0.008451
4.2102e-07
0.00841238
6.29565e-06
0.00807583
6.52418e-05
0.00781035
-0.000162853
0.00889195
0.00313909
0.0120932
0.00944325
0.0127449
0.0113934
0.0124367
0.0108619
0.0122174
0.0101584
0.0121006
0.00965493
0.00912876
0.0120502
0.0084507
4.60786e-19
0.0084507
2.43945e-19
0.0084507
1.30917e-17
0.0084507
1.73825e-16
0.0084507
3.30682e-18
0.0084507
6.94402e-15
0.0084507
1.58134e-14
0.0084507
3.77823e-13
0.0084507
2.35232e-12
0.0084507
2.47066e-12
0.0084507
1.71382e-10
0.0084507
2.42784e-10
0.00845069
7.59829e-09
0.00845054
8.23499e-08
0.00844924
9.83739e-08
0.00843939
1.47832e-06
0.00835591
3.68019e-05
0.00795982
-0.000425316
0.007853
0.00177343
0.010077
0.00684602
0.0125852
0.0115273
0.0124961
0.0109367
0.0125319
0.0102527
0.0124576
0.00982043
0.00929477
0.0123933
0.0084507
-2.43945e-19
0.0084507
1.11131e-18
0.0084507
-2.73761e-18
0.0084507
1.20346e-17
0.0084507
1.6694e-16
0.0084507
1.10231e-15
0.0084507
1.16362e-14
0.0084507
5.05232e-14
0.0084507
4.41728e-13
0.0084507
5.29634e-12
0.0084507
2.23325e-11
0.0084507
4.9519e-10
0.00845069
1.87505e-09
0.00845067
1.58795e-08
0.00844976
2.20139e-07
0.00844588
1.02103e-06
0.00842995
1.0055e-05
0.00792811
6.24087e-05
0.00764942
0.000149426
0.00932131
0.00409756
0.0127873
0.01017
0.0132329
0.0112956
0.0130871
0.010713
0.0129285
0.0100678
0.00952069
0.0127918
0.0084507
-1.89735e-19
0.0084507
1.73472e-18
0.0084507
-4.39102e-18
0.0084507
7.83336e-18
0.0084507
7.7927e-17
0.0084507
3.11464e-16
0.0084507
4.64323e-15
0.0084507
1.29681e-14
0.0084507
3.04599e-13
0.0084507
1.69814e-12
0.0084507
1.46427e-12
0.0084507
2.43319e-10
0.0084507
2.81548e-10
0.00845067
1.05464e-08
0.00845048
9.47386e-08
0.00844889
2.63763e-07
0.00843515
3.42112e-06
0.00832587
3.24221e-05
0.00797384
-0.000289768
0.00840866
0.0021208
0.0113549
0.00759739
0.0134404
0.0115026
0.0133319
0.0110476
0.0133024
0.0102651
0.00976995
0.0131498
0.0084507
-4.87891e-19
0.0084507
4.06576e-19
0.0084507
-1.35525e-18
0.0084507
8.26704e-18
0.0084507
3.82723e-17
0.0084507
4.2376e-16
0.0084507
1.04238e-15
0.0084507
2.4033e-14
0.0084507
1.32432e-13
0.0084507
1.63691e-12
0.0084507
1.39382e-11
0.0084507
3.51821e-11
0.0084507
6.43932e-10
0.0084507
2.76623e-09
0.00845047
3.87271e-08
0.00845074
2.56723e-07
0.00845275
1.13766e-06
0.00839778
1.14033e-05
0.00795216
9.20872e-05
0.00780997
0.000277737
0.00972818
0.00466507
0.0134018
0.0102707
0.0138847
0.0112997
0.0137281
0.0107756
0.0100698
0.0135086
0.0084507
1.89735e-19
0.0084507
3.79471e-19
0.0084507
-3.79471e-19
0.0084507
3.7405e-18
0.0084507
1.22786e-17
0.0084507
2.16407e-16
0.0084507
1.86944e-16
0.0084507
9.11768e-15
0.0084507
5.46021e-14
0.0084507
5.86099e-13
0.0084507
8.11092e-12
0.0084507
8.86976e-12
0.0084507
2.86636e-10
0.0084507
7.27778e-10
0.00845068
1.39353e-08
0.00845045
1.20867e-07
0.00844871
2.94661e-07
0.00843403
2.8488e-06
0.00833313
4.01584e-05
0.00805145
-0.000316883
0.00871724
0.002438
0.0118781
0.00772576
0.0140022
0.0114105
0.0138957
0.0110858
0.0102795
0.0138266
0.0084507
3.79471e-19
0.0084507
8.13152e-20
0.0084507
5.96311e-19
0.0084507
-4.17418e-18
0.0084507
1.74014e-17
0.0084507
3.04932e-17
0.0084507
4.96673e-16
0.0084507
5.00123e-15
0.0084507
8.1806e-15
0.0084507
2.25476e-13
0.0084507
-2.43442e-13
0.0084507
1.18322e-11
0.0084507
2.52515e-11
0.0084507
7.2917e-10
0.0084507
2.57407e-09
0.00845054
4.15023e-08
0.00845082
2.87061e-07
0.00845233
1.28991e-06
0.00840309
7.07245e-06
0.00799248
9.08614e-05
0.00781896
0.000590267
0.00986291
0.00462928
0.0136927
0.00992166
0.0143075
0.0112179
0.0107587
0.0141122
0.0084507
-2.43945e-19
0.0084507
-5.96311e-19
0.0084507
-4.33681e-19
0.0084507
-5.71917e-18
0.0084507
9.81203e-18
0.0084507
-5.77338e-18
0.0084507
1.58294e-16
0.0084507
2.57257e-15
0.0084507
-2.68595e-15
0.0084507
1.00548e-13
0.0084507
-1.11042e-12
0.0084507
5.10119e-12
0.0084507
-1.24387e-11
0.0084507
3.08189e-10
0.0084507
1.20835e-11
0.00845068
1.51208e-08
0.0084505
6.96394e-08
0.00844899
3.69542e-07
0.00843554
-2.84753e-06
0.00836075
3.05283e-05
0.00813124
-0.000120933
0.00890873
0.00231117
0.0120163
0.00730793
0.0143522
0.0111251
0.0109328
0.0142582
0.0084507
-2.71051e-20
0.0084507
-2.98156e-19
0.0084507
-6.50521e-19
0.0084507
-1.16552e-18
0.0084507
-1.11131e-18
0.0084507
1.95156e-18
0.0084507
3.36103e-17
0.0084507
3.84214e-16
0.0084507
2.17868e-15
0.0084507
2.24394e-14
0.0084507
-5.33287e-14
0.0084507
1.3477e-12
0.0084507
4.76594e-12
0.0084507
6.7504e-11
0.0084507
4.40429e-10
0.0084507
4.57193e-09
0.00845067
-2.98778e-08
0.00845093
2.34126e-07
0.0084476
1.14042e-06
0.00840454
5.7754e-06
0.00811217
9.50086e-05
0.00780084
0.000791143
0.00984139
0.00413087
0.013845
0.00920015
0.01097
0.0146869
0.0084507
1.6263e-19
0.0084507
1.35525e-19
0.0084507
-3.61112e-35
0.0084507
5.42101e-20
0.0084507
-2.1684e-19
0.0084507
1.30104e-18
0.0084507
1.33628e-17
0.0084507
2.46656e-16
0.0084507
1.28318e-15
0.0084507
6.50792e-15
0.0084507
-2.39101e-14
0.0084507
5.98029e-13
0.0084507
6.572e-13
0.0084507
2.42888e-11
0.0084507
1.83342e-10
0.00845071
1.57808e-09
0.00845068
7.28734e-09
0.00845045
7.24238e-08
0.00844998
8.67985e-08
0.00843905
-3.70695e-06
0.00839345
2.70526e-05
0.00820971
7.7205e-05
0.00885255
0.00196418
0.0117318
0.00651216
0.0104784
0.0145322
0.0084507
-2.43945e-19
0.0084507
-5.69206e-19
0.0084507
8.13152e-20
0.0084507
1.89735e-19
0.0084507
4.87891e-19
0.0084507
-2.71051e-20
0.0084507
8.07731e-18
0.0084507
6.89824e-17
0.0084507
4.33681e-16
0.0084507
1.24803e-15
0.0084507
1.6586e-14
0.0084507
1.03434e-13
0.0084507
6.81531e-13
0.0084507
6.62404e-12
0.0084507
8.70102e-11
0.00845071
4.27818e-10
0.0084507
1.58856e-09
0.00845063
2.37921e-08
0.00845024
1.63461e-07
0.00844738
1.13752e-06
0.00841962
-1.55732e-06
0.00826223
9.1401e-05
0.00783032
0.00087724
0.00962953
0.00345903
0.00797759
0.0136697
0.0084507
-6.50521e-19
0.0084507
-4.60786e-19
0.0084507
-1.21973e-18
0.0084507
-1.54499e-18
0.0084507
-1.92446e-18
0.0084507
-2.43945e-18
0.0084507
-4.06576e-19
0.0084507
8.80914e-18
0.0084507
4.66207e-17
0.0084507
7.62953e-16
0.0084507
4.40899e-15
0.0084507
6.50562e-15
0.0084507
2.96355e-13
0.0084507
1.24703e-13
0.0084507
2.0815e-11
0.0084507
3.92414e-11
0.0084507
8.1075e-10
0.0084507
6.49307e-09
0.00845053
6.7066e-08
0.0084498
3.15377e-07
0.00844109
-9.24669e-06
0.00840536
2.81326e-05
0.00828889
0.000205577
0.00938587
0.000661383
0.00574013
0.0116933
0.0084507
-4.87891e-19
0.0084507
4.33681e-19
0.0084507
-1.89735e-19
0.0084507
-1.6263e-19
0.0084507
-4.60786e-19
0.0084507
-1.19262e-18
0.0084507
-8.13152e-19
0.0084507
1.00289e-18
0.0084507
3.30682e-17
0.0084507
2.0692e-16
0.0084507
8.08517e-16
0.0084507
1.28426e-14
0.0084507
7.6954e-14
0.0084507
9.9897e-15
0.0084507
2.53606e-12
0.0084507
2.61261e-11
0.0084507
1.86329e-10
0.00845071
1.45292e-09
0.0084508
6.82271e-09
0.0084512
9.54842e-08
0.00844182
2.57196e-07
0.00842632
9.27698e-06
0.00842008
7.11142e-05
0.0081997
-0.000314303
0.00303302
0.00958881
0.0084507
-1.0842e-19
0.0084507
3.79471e-19
0.0084507
9.48677e-19
0.0084507
8.13152e-19
0.0084507
1.35525e-18
0.0084507
9.21572e-19
0.0084507
2.76472e-18
0.0084507
2.62919e-18
0.0084507
4.39102e-18
0.0084507
7.16387e-17
0.0084507
4.70815e-17
0.0084507
4.24115e-15
0.0084507
1.14797e-14
0.0084507
1.08236e-13
0.0084507
1.2679e-12
0.0084507
5.52142e-12
0.0084507
6.41521e-11
0.0084507
2.44345e-10
0.00845069
-3.04455e-09
0.00845067
2.80569e-08
0.00845004
-2.92438e-07
0.00844853
1.08119e-06
0.00844522
1.33144e-05
0.00809534
0.000102685
0.00103276
0.00810312
0.0084507
4.60786e-19
0.0084507
2.1684e-19
0.0084507
3.79471e-19
0.0084507
9.21572e-19
0.0084507
1.57209e-18
0.0084507
1.43657e-18
0.0084507
3.1984e-18
0.0084507
2.73761e-18
0.0084507
-2.00577e-18
0.0084507
3.24448e-17
0.0084507
-1.54553e-16
0.0084507
1.43399e-15
0.0084507
7.69315e-15
0.0084507
1.54366e-14
0.0084507
6.9359e-13
0.0084507
9.09237e-13
0.0084507
3.35889e-11
0.0084507
9.35099e-11
0.0084507
6.29714e-10
0.00845073
9.78592e-09
0.00845012
5.1199e-08
0.00844965
-1.04301e-07
0.00843756
5.8748e-06
0.00841807
2.55181e-05
0.0001791
0.00834239
0.0084507
1.0842e-19
0.0084507
3.52366e-19
0.0084507
1.6263e-19
0.0084507
5.69206e-19
0.0084507
8.13152e-20
0.0084507
1.6263e-19
0.0084507
2.1684e-19
0.0084507
-2.71051e-20
0.0084507
-5.69206e-19
0.0084507
8.26704e-18
0.0084507
4.78675e-17
0.0084507
3.86518e-16
0.0084507
2.25089e-15
0.0084507
-2.85712e-14
0.0084507
2.3816e-13
0.0084507
-1.99851e-14
0.0084507
7.73624e-12
0.0084507
4.05294e-11
0.0084507
-8.0201e-11
0.00845069
2.95754e-09
0.00845072
-3.57887e-09
0.00845022
1.36846e-07
0.00845235
1.21571e-06
0.00843486
8.97703e-06
8.27894e-05
0.00842517
0.0084507
-2.43945e-19
0.0084507
-2.40741e-35
0.0084507
2.43945e-19
0.0084507
6.50521e-19
0.0084507
4.60786e-19
0.0084507
1.6263e-19
0.0084507
-1.35525e-19
0.0084507
1.0842e-19
0.0084507
-1.92446e-18
0.0084507
2.35814e-18
0.0084507
7.83336e-18
0.0084507
1.22786e-16
0.0084507
5.25594e-16
0.0084507
2.77485e-15
0.0084507
5.73377e-14
0.0084507
2.12826e-13
0.0084507
3.15092e-12
0.0084507
1.3476e-11
0.0084507
-1.73844e-10
0.0084507
1.22759e-09
0.00845068
4.37292e-09
0.00845062
1.45316e-08
0.00845035
3.35092e-07
0.00844896
1.35029e-06
1.09513e-05
0.00846783
0.0084507
4.06576e-19
0.0084507
6.23416e-19
0.0084507
6.23416e-19
0.0084507
2.98156e-19
0.0084507
2.1684e-19
0.0084507
-2.98156e-19
0.0084507
-8.67362e-19
0.0084507
-1.0571e-18
0.0084507
-3.63208e-18
0.0084507
-2.49366e-18
0.0084507
-1.16552e-18
0.0084507
3.33121e-17
0.0084507
1.88895e-16
0.0084507
1.55111e-15
0.0084507
1.85491e-14
0.0084507
-1.39753e-14
0.0084507
8.90482e-13
0.0084507
3.35169e-12
0.0084507
1.49101e-11
0.0084507
3.7271e-10
0.0084507
5.39591e-10
0.00845068
7.16813e-09
0.00845057
1.19171e-07
0.00844956
5.4798e-07
1.50662e-06
0.00844171
0.0084507
1.6263e-19
0.0084507
1.0842e-19
0.0084507
1.89735e-19
0.0084507
-5.42101e-19
0.0084507
-5.69206e-19
0.0084507
-7.58942e-19
0.0084507
-1.87025e-18
0.0084507
-1.38236e-18
0.0084507
-1.24683e-18
0.0084507
-8.67362e-19
0.0084507
-1.13841e-18
0.0084507
1.28478e-17
0.0084507
4.93583e-17
0.0084507
-1.6366e-16
0.0084507
5.17679e-15
0.0084507
2.43919e-14
0.0084507
3.22838e-13
0.0084507
7.46706e-13
0.0084507
-5.24617e-12
0.0084507
1.27819e-10
0.0084507
-3.78042e-10
0.00845071
4.11573e-09
0.00845071
2.92722e-08
0.00845041
1.95776e-07
1.69568e-06
0.00844839
0.0084507
-2.43945e-19
0.0084507
-7.86047e-19
0.0084507
-3.52366e-19
0.0084507
2.71051e-20
0.0084507
2.1684e-19
0.0084507
6.23416e-19
0.0084507
8.13152e-20
0.0084507
6.77626e-19
0.0084507
1.11131e-18
0.0084507
1.6263e-18
0.0084507
6.23416e-19
0.0084507
5.9089e-18
0.0084507
2.00306e-17
0.0084507
-6.64074e-17
0.0084507
9.74833e-16
0.0084507
2.73083e-15
0.0084507
9.73493e-14
0.0084507
-4.29716e-13
0.0084507
2.71741e-12
0.0084507
2.04236e-12
0.0084507
9.20063e-11
0.0084507
6.12568e-10
0.00845069
8.53589e-09
0.00845084
4.47799e-08
3.58812e-07
0.00845043
0.0084507
4.60786e-19
0.0084507
4.06576e-19
0.0084507
6.50521e-19
0.0084507
8.67362e-19
0.0084507
1.11131e-18
0.0084507
1.30104e-18
0.0084507
9.75782e-19
0.0084507
8.13152e-19
0.0084507
4.60786e-19
0.0084507
2.71051e-19
0.0084507
8.94467e-19
0.0084507
1.73472e-18
0.0084507
5.55654e-18
0.0084507
3.97902e-17
0.0084507
-4.52383e-17
0.0084507
2.48719e-15
0.0084507
1.75192e-14
0.0084507
5.90697e-14
0.0084507
8.27106e-13
0.0084507
1.87051e-12
0.0084507
3.13552e-11
0.0084507
9.96313e-11
0.00845071
2.54345e-09
0.00845073
1.07334e-08
1.20193e-07
0.00845053
0.0084507
1.0842e-19
0.0084507
-1.0842e-19
0.0084507
-5.14996e-19
0.0084507
-1.32815e-18
0.0084507
-8.94467e-19
0.0084507
-5.42101e-19
0.0084507
-7.04731e-19
0.0084507
-1.11131e-18
0.0084507
-1.32815e-18
0.0084507
-1.00289e-18
0.0084507
-1.0571e-18
0.0084507
-1.49078e-18
0.0084507
-1.16552e-18
0.0084507
3.57787e-18
0.0084507
7.6897e-17
0.0084507
4.69107e-16
0.0084507
6.0801e-15
0.0084507
8.25652e-15
0.0084507
2.24716e-13
0.0084507
2.86139e-13
0.0084507
1.22034e-11
0.0084507
9.74833e-11
0.0084507
8.44228e-10
0.00845071
1.87899e-09
2.56207e-08
0.00845069
0.0084507
-4.06576e-19
0.0084507
-9.75782e-19
0.0084507
-8.40257e-19
0.0084507
-1.32815e-18
0.0084507
-1.43657e-18
0.0084507
-1.30104e-18
0.0084507
-1.0571e-18
0.0084507
-1.32815e-18
0.0084507
-1.24683e-18
0.0084507
-5.96311e-19
0.0084507
-1.16552e-18
0.0084507
-1.43657e-18
0.0084507
-1.0842e-18
0.0084507
-1.19262e-18
0.0084507
8.86335e-18
0.0084507
9.55453e-17
0.0084507
1.52046e-15
0.0084507
7.3481e-15
0.0084507
5.27422e-14
0.0084507
4.2996e-13
0.0084507
3.22479e-12
0.0084507
1.20565e-11
0.0084507
2.29289e-10
0.0084507
7.81987e-10
3.79218e-09
0.00845072
0.0084507
-1.35525e-19
0.0084507
-2.71051e-19
0.0084507
-1.6263e-19
0.0084507
-2.71051e-20
0.0084507
1.0842e-19
0.0084507
-2.98156e-19
0.0084507
-2.71051e-19
0.0084507
-3.25261e-19
0.0084507
-2.98156e-19
0.0084507
-6.23416e-19
0.0084507
-1.16552e-18
0.0084507
-1.0571e-18
0.0084507
-1.40946e-18
0.0084507
-1.68051e-18
0.0084507
-5.14996e-18
0.0084507
3.79742e-17
0.0084507
3.94135e-16
0.0084507
1.22954e-15
0.0084507
1.45622e-14
0.0084507
6.05144e-14
0.0084507
7.12618e-13
0.0084507
-1.32793e-12
0.0084507
3.26715e-11
0.0084507
9.86836e-11
2.95565e-10
0.00845071
0.0084507
2.43945e-19
0.0084507
1.89735e-19
0.0084507
1.6263e-19
0.0084507
1.35525e-19
0.0084507
1.89735e-19
0.0084507
-5.96311e-19
0.0084507
-9.48677e-19
0.0084507
-1.24683e-18
0.0084507
-1.73472e-18
0.0084507
-2.00577e-18
0.0084507
-2.00577e-18
0.0084507
-2.35814e-18
0.0084507
-2.57498e-18
0.0084507
-3.63208e-18
0.0084507
-2.90024e-18
0.0084507
7.86047e-18
0.0084507
9.14525e-17
0.0084507
3.02221e-16
0.0084507
3.55952e-15
0.0084507
1.67409e-15
0.0084507
1.01873e-13
0.0084507
6.1342e-13
0.0084507
5.3817e-12
0.0084507
2.23722e-11
-2.25387e-10
0.0084507
0.0084507
1.89735e-19
0.0084507
5.96311e-19
0.0084507
5.42101e-19
0.0084507
5.42101e-19
0.0084507
7.31836e-19
0.0084507
2.71051e-19
0.0084507
-3.79471e-19
0.0084507
-5.69206e-19
0.0084507
-5.14996e-19
0.0084507
-9.48677e-19
0.0084507
-9.21572e-19
0.0084507
-1.6263e-18
0.0084507
-2.54788e-18
0.0084507
-2.90024e-18
0.0084507
-2.6834e-18
0.0084507
-1.51788e-18
0.0084507
4.8247e-18
0.0084507
-9.32956e-17
0.0084507
9.03439e-16
0.0084507
-2.22901e-15
0.0084507
2.1709e-14
0.0084507
-2.9627e-13
0.0084507
-7.35233e-13
0.0084507
1.69931e-11
-1.06611e-10
0.0084507
0.0084507
7.52316e-36
0.0084507
2.43945e-19
0.0084507
1.89735e-19
0.0084507
5.42101e-20
0.0084507
1.0842e-19
0.0084507
2.71051e-20
0.0084507
5.42101e-19
0.0084507
8.13152e-19
0.0084507
9.75782e-19
0.0084507
-1.0842e-19
0.0084507
-4.06576e-19
0.0084507
-1.68051e-18
0.0084507
-2.05998e-18
0.0084507
-2.57498e-18
0.0084507
-2.71051e-18
0.0084507
-2.60209e-18
0.0084507
-7.31836e-19
0.0084507
-1.29833e-17
0.0084507
1.63606e-16
0.0084507
1.35051e-15
0.0084507
7.09526e-15
0.0084507
-1.29172e-14
0.0084507
3.35337e-13
0.0084507
7.24114e-12
-3.63773e-11
0.0084507
0.0084507
-3.52366e-19
0.0084507
-7.58942e-19
0.0084507
-1.68051e-18
0.0084507
-2.03288e-18
0.0084507
-2.41235e-18
0.0084507
-2.62919e-18
0.0084507
-2.11419e-18
0.0084507
-2.24972e-18
0.0084507
-1.92446e-18
0.0084507
-1.6263e-18
0.0084507
-1.0842e-18
0.0084507
-6.77626e-19
0.0084507
-3.52366e-19
0.0084507
-2.43945e-19
0.0084507
-3.79471e-19
0.0084507
2.43945e-19
0.0084507
3.7676e-18
0.0084507
1.87025e-17
0.0084507
6.38324e-17
0.0084507
6.4529e-16
0.0084507
1.46454e-15
0.0084507
2.80706e-14
0.0084507
1.49061e-13
0.0084507
1.62052e-12
-7.57018e-12
0.0084507
0.0084507
0.0084507
0.0084507
0.0084507
0.0084507
0.0084507
0.0084507
0.0084507
0.0084507
0.0084507
0.0084507
0.0084507
0.0084507
0.0084507
0.0084507
0.0084507
0.0084507
0.0084507
0.0084507
0.0084507
0.0084507
0.0084507
0.0084507
0.0084507
0.0084507
0.00303539
0.00461675
-0.000114171
0.00315062
-0.00163292
0.00151947
-0.00191684
0.000280423
-0.00191847
4.30079e-06
-0.00193165
7.02206e-05
-0.00242444
0.000580317
-0.00297628
0.000470441
-0.00334874
0.000305676
-0.00352179
0.000166341
-0.00355783
3.51795e-05
-0.00353858
-1.40231e-05
-0.00352368
-6.3062e-06
-0.00347479
9.69876e-06
-0.0034433
-9.39746e-06
-0.003521
2.2773e-05
-0.00360425
5.02737e-05
-0.00364891
4.05721e-05
-0.00368561
2.11621e-05
-0.00367852
1.28869e-06
-0.00367048
-5.01803e-06
-0.00366677
-4.96057e-06
-0.00366222
-1.72026e-06
-0.00366008
2.02245e-08
-0.00365583
-1.73798e-06
-0.00365691
-2.55925e-06
-0.00366321
-3.34181e-07
-0.00367068
2.11062e-06
-0.00367605
2.14861e-06
-0.00367953
8.57521e-07
-0.00369562
-6.94132e-07
-0.00370789
-3.98231e-06
-0.00372338
-4.00487e-06
-0.00374795
-6.0152e-06
-0.00375007
-1.72501e-05
-0.00371827
-4.10905e-05
-0.00367058
-5.94291e-05
-0.00357806
-7.62186e-05
-0.00339991
-0.000166992
-0.00323634
-0.000161913
-0.00302565
-0.000195069
-0.00276544
-0.000252232
-0.00249155
-0.000278557
-0.00218075
-0.0002929
-0.00183826
-0.000319997
-0.00154483
-0.000284472
-0.00121585
-0.000322671
-0.000781331
-0.000426675
-0.000388675
-0.000391938
4.23644e-05
-0.000428736
0.000470846
-0.000431501
0.000846732
-0.000374742
0.00121371
-0.000369343
0.00156786
-0.000353959
0.0018989
-0.00033094
0.00220842
-0.00031171
0.00249693
-0.000287135
0.0027679
-0.000270004
0.0030179
-0.000248886
0.00324538
-0.000227923
0.00345226
-0.000207635
0.0036422
-0.000190147
0.00381717
-0.00017448
0.00397581
-0.000158778
0.00411859
-0.000144147
0.00424876
-0.000131516
0.00436917
-0.000121124
0.0044801
-0.000111036
0.00458078
-0.000101599
0.00467176
-9.26419e-05
0.00475573
-8.55496e-05
0.00483348
-7.91472e-05
0.00490642
-7.40856e-05
0.00497429
-6.93092e-05