/*--------------------------------*- C++ -*----------------------------------*\
| =========                 |                                                 |
| \\      /  F ield         | OpenFOAM: The Open Source CFD Toolbox           |
|  \\    /   O peration     | Version:  v2106                                 |
|   \\  /    A nd           | Website:  www.openfoam.com                      |
|    \\/     M anipulation  |                                                 |
\*---------------------------------------------------------------------------*/
FoamFile
{
    version     2.0;
    format      ascii;
    arch        "LSB;label=32;scalar=64";
    class       volScalarField;
    location    "19";
    object      T;
}
// * * * * * * * * * * * * * * * * * * * * * * * * * * * * * * * * * * * * * //

dimensions      [0 0 0 1 0 0 0];

internalField   nonuniform List<scalar> 
5250
(
1
1
1
1
1
1
1
1
1.00001
1.00011
1.00094
1.00832
1.06772
1.36031
2.14308
2.80984
2.398
2.32882
2.3706
2.36613
2.3692
2.37476
2.37266
2.36731
2.35925
1
1
1
1
1
1
1
1
1.00001
1.0001
1.0009
1.00791
1.0649
1.34979
2.08381
2.82049
2.38557
2.31556
2.35913
2.35656
2.36085
2.36836
2.36762
2.36337
2.35592
1
1
1
1
1
1
1
1
1.00001
1.00009
1.00083
1.00731
1.06063
1.3342
2.05201
2.8598
2.36644
2.29375
2.34043
2.33896
2.34496
2.35577
2.35668
2.35365
2.34684
1
1
1
1
1
1
1
1
1.00001
1.00008
1.00075
1.00654
1.05495
1.31249
2.00629
2.94203
2.35933
2.27204
2.31765
2.3174
2.32561
2.33924
2.34354
2.34192
2.33644
1
1
1
1
1
1
1
1
1.00001
1.00007
1.00066
1.00568
1.04827
1.28553
1.94774
3.03435
2.37881
2.27449
2.31145
2.3013
2.30431
2.31411
2.32564
2.32671
2.32292
1
1
1
1
1
1
1
1
1.00001
1.00006
1.00053
1.00461
1.04091
1.25398
1.88225
3.07341
2.43284
2.29909
2.32327
2.30644
2.29998
2.30186
2.30697
2.30816
2.30423
1
1
1
1
1
1
1
1
1
1.00004
1.0004
1.00358
1.03317
1.21749
1.80261
3.14391
2.53354
2.35207
2.35486
2.32269
2.30332
2.28496
2.28415
2.28657
2.27984
1
1
1
1
1
1
1
1
1
1.00004
1.00034
1.00302
1.02761
1.18929
1.72274
3.12377
2.5754
2.41716
2.39969
2.35252
2.31229
2.28451
2.26145
2.25877
2.24139
1
1
1
1
1
1
1
1
1
1.00003
1.00026
1.00235
1.02168
1.15688
1.63894
3.03244
2.56422
2.47295
2.45373
2.39966
2.33261
2.2821
2.23057
2.2252
2.17875
1
1
1
1
1
1
1
1
1
1.00002
1.00021
1.00188
1.01766
1.13179
1.55298
2.8791
2.49891
2.49064
2.47556
2.43883
2.37466
2.29695
2.2135
2.18361
2.04152
1
1
1
1
1
1
1
1
1
1.00002
1.00015
1.00134
1.01236
1.09782
1.465
2.72174
2.52464
2.44248
2.44255
2.43362
2.39251
2.31349
2.19137
2.06135
1.78205
1
1
1
1
1
1
1
1
1
1.00001
1.00009
1.00087
1.0077
1.0658
1.37904
2.55359
2.58192
2.37799
2.38244
2.40286
2.38529
2.32772
2.21084
2.07713
1.70079
1
1
1
1
1
1
1
1
1
1.00001
1.00007
1.00062
1.00526
1.04532
1.27401
1.96507
2.68308
2.26582
2.30143
2.35625
2.35906
2.32198
2.22584
2.10358
1.73721
1
1
1
1
1
1
1
1
1
1
1.00004
1.00036
1.0032
1.02968
1.2013
1.76166
2.86727
2.2743
2.23855
2.28888
2.32015
2.29465
2.22017
2.11349
1.81781
1
1
1
1
1
1
1
1
1
1
1.00003
1.00027
1.00237
1.0207
1.14773
1.59192
2.88176
2.28592
2.24131
2.23407
2.26111
2.25144
2.20489
2.12228
1.92576
1
1
1
1
1
1
1
1
1
1
1.00002
1.00015
1.00132
1.01191
1.09071
1.44643
2.75968
2.43126
2.2047
2.15247
2.17387
2.19713
2.17661
2.11662
1.98282
1
1
1
1
1
1
1
1
1
1
1.00002
0.999991
1.00046
1.00472
1.04329
1.30947
2.40376
2.62561
2.23229
2.13747
2.14453
2.15691
2.1416
2.09995
2.00382
1
1
1
1
1
1
1
1
1
1
1
1.00004
1.00037
1.00328
1.02907
1.19779
1.76466
2.83352
2.2565
2.18225
2.11785
2.11628
2.10173
2.07032
2.00071
1
1
1
1
1
1
1
1
1
1
1
1.00002
1.00021
1.00181
1.01582
1.11536
1.5258
2.78645
2.34965
2.20044
2.09637
2.07331
2.05589
2.03256
1.98492
1
1
1
1
1
1
1
1
1
1
1
1.00001
1.00008
1.00078
1.0068
1.05921
1.36569
2.54758
2.50581
2.19099
2.06953
2.05454
2.03592
2.0085
1.96513
1
1
1
1
1
1
1
1
1
1
1
1.00001
1.00005
1.00041
1.00348
1.02844
1.18296
1.80419
2.7577
2.20825
2.13087
2.04699
2.02206
1.99417
1.9529
1
1
1
1
1
1
1
1
1
1
1
1
1.00006
1.00005
1.00141
1.01166
1.09256
1.52862
2.62545
2.35135
2.11296
2.02672
2.00374
1.97643
1.93913
1
1
1
1
1
1
1
1
1
1
1
1
1.00001
1.00008
1.00065
1.00527
1.04127
1.2464
2.18156
2.58675
2.12383
2.06383
2.00562
1.96782
1.9263
1
1
1
1
1
1
1
1
1
1
1
1
1.00001
1.00006
1.00024
1.00202
1.00788
1.08941
1.67617
2.70147
2.25232
2.08972
1.99592
1.95754
1.91582
1
1
1
1
1
1
1
1
1
1
1
1
1
1.00001
1.00011
1.0009
1.00709
1.05471
1.30804
2.49715
2.45289
2.1009
2.0129
1.95782
1.91397
1
1
1
1
1
1
1
1
1
1
1
1
1
1.00001
1.0001
1.00009
1.00179
1.01349
1.11324
1.8068
2.70754
2.21373
2.06036
1.95623
1.91501
1
1
1
1
1
1
1
1
1
1
1
1
1
1
1.00002
1.00013
1.00103
1.00799
1.06081
1.33147
2.50098
2.40403
2.06342
1.97833
1.92216
1
1
1
1
1
1
1
1
1
1
1
1
1
1
1.00001
1.00009
1.00003
1.00184
1.01326
1.1061
1.80988
2.67396
2.19058
2.0237
1.9268
1
1
1
1
1
1
1
1
1
1
1
1
1
1
1
1.00002
1.00013
1.00101
1.00758
1.05828
1.3331
2.46211
2.38749
2.04063
1.96489
1
1
1
1
1
1
1
1
1
1
1
1
1
1
1
1.00001
1.00005
0.999946
1.0014
1.01221
1.10103
1.7351
2.6205
2.19223
2.00072
1
1
1
1
1
1
1
1
1
1
1
1
1
1
1
1
1.00001
1.00009
1.00079
1.0063
1.04965
1.30259
2.37852
2.39156
2.0405
1
1
1
1
1
1
1
1
1
1
1
1
1
1
1
1
1
1.00003
1.00005
1.00139
1.01279
1.0971
1.61666
2.53951
2.25114
1
1
1
1
1
1
1
1
1
1
1
1
1
1
1
1
1
1.00001
1.00008
1.00067
1.00524
1.04176
1.27268
2.22441
2.40468
1
1
1
1
1
1
1
1
1
1
1
1
1
1
1
1
1
0.999999
0.99999
0.999802
1.00053
1.00761
1.06803
1.40449
2.31044
1
1
1
1
1
1
1
1
1
1
1
1
1
1
1
1
1
1
1.00001
1.00005
1.00032
1.00272
1.01029
1.09493
1.77226
1
1
1
1
1
1
1
1
1
1
1
1
1
1
1
1
1
1
1
0.999995
1.00006
1.00074
1.00529
1.04594
1.29941
1
1
1
1
1
1
1
1
1
1
1
1
1
1
1
1
1
1
1
1
1.00002
1.00017
1.0014
1.00891
1.07903
1
1
1
1
1
1
1
1
1
1
1
1
1
1
1
1
1
1
1
1
1.00001
1.00006
1.00044
1.00296
1.02095
1
1
1
1
1
1
1
1
1
1
1
1
1
1
1
1
1
1
1
1
1
1.00002
1.00011
1.00079
1.00581
1
1
1
1
1
1
1
1
1
1
1
1
1
1
1
1
1
1
1
1
1
1
1.00003
1.00015
1.00133
1
1
1
1
1
1
1
1
1
1
1
1
1
1
1
1
1
1
1
1
1
1
1.00001
1.00006
1.00029
1
1
1
1
1
1
1
1
1
1
1
1
1
1
1
1
1
1
1
1
1
1
1
1.00001
1.00009
1
1
1
1
1
1
1
1
1
1
1
1
1
1
1
1
1
1
1
1
1
1
1
1
1.00002
1
1
1
1
1
1
1
1
1
1
1
1
1
1
1
1
1
1
1
1
1
1
1
1
1.00001
1
1
1
1
1
1
1
1
1
1
1
1
1
1
1
1
1
1
1
1
1
1
1
1
0.999999
1
1
1
1
1
1
1
1
1
1
1
1
1
1
1
1
1
1
1
1
1
1
1
1
1
1
1
1
1
1
1
1
1
1
1
1
1
1
1
1
1
1
1
1
1
1
1
1
1
1
1
1
1
1
1
1
1
1
1
1
1
1
1
1
1
1
1
1
1
1
1
1
1
1
1
1
1
1
1
1
1
1
1
1
1
1
1
1
1
1
1
1
1
1
1
1
1
1
1
1
1
1
1
1
1
1
1
1
1
1
1
1
1
1
1
1
1
1
1
1
1
1
1
1
1
1.98032
2.23149
2.76806
2.72138
2.69513
2.74579
2.7882
2.79879
2.58192
2.50137
2.4888
2.49574
2.50204
2.50694
2.5315
2.48117
2.40438
2.36947
2.36067
2.35524
2.36758
2.37103
2.37103
2.37259
2.37265
2.37043
2.36208
2.35559
2.35154
2.34979
2.349
2.34267
2.34207
2.34756
2.3524
2.38475
2.41471
2.44516
2.50318
2.54459
2.5782
2.62275
2.65687
2.6832
2.72097
2.74857
2.75706
2.76084
2.77226
2.77217
2.81084
2.79459
2.78438
2.7705
2.7565
2.74378
2.72928
2.71475
2.69945
2.68507
2.67112
2.65776
2.64497
2.63233
2.62089
2.60982
2.59861
2.58708
2.57547
2.56486
2.55428
2.54377
2.53318
2.52274
2.51238
2.50208
2.49177
2.48169
2.47184
2.46264
2.45339
2.44456
2.43567
2.42725
2.41878
2.41089
2.40294
2.39564
2.38827
2.38154
2.37469
2.36825
2.36161
2.35545
2.34897
2.3424
2.3356
2.32491
2.32458
2.32975
2.02199
2.18651
2.37517
2.60854
2.68967
2.81068
2.9271
3.10308
2.89181
2.81214
2.80412
2.85535
2.87334
2.89115
2.90395
2.83261
2.78584
2.76014
2.76165
2.76311
2.76828
2.77206
2.77176
2.77333
2.7729
2.77358
2.76715
2.76078
2.75504
2.7536
2.75343
2.74508
2.74429
2.75013
2.75114
2.77593
2.79555
2.81387
2.85668
2.881
2.89415
2.89851
2.8898
2.89271
2.90973
2.88199
2.86606
2.85083
2.82345
2.79582
2.76077
2.71647
2.6841
2.65117
2.61745
2.58951
2.56073
2.53574
2.50929
2.48478
2.46236
2.44252
2.42434
2.40577
2.38979
2.37654
2.36366
2.35058
2.33702
2.32414
2.31185
2.30056
2.28968
2.27904
2.26848
2.25831
2.24829
2.23864
2.22947
2.22113
2.21281
2.20477
2.19664
2.18891
2.18113
2.17404
2.16696
2.16054
2.15409
2.1482
2.14221
2.13664
2.13099
2.126
2.12095
2.116
2.11089
2.10241
2.1028
2.10906
1.83334
1.98281
2.13461
2.37925
2.5061
2.61541
2.67985
2.82736
2.97813
3.00547
3.04447
3.02337
2.99733
3.02711
3.0848
3.14342
3.04588
2.9897
2.98019
2.96963
2.99549
3.00566
3.00703
3.0058
3.00736
3.00138
2.99649
2.98981
2.98747
2.98898
2.99012
2.98158
2.97989
2.9811
2.9811
3.00055
3.02072
3.02481
3.07582
3.08897
3.06256
3.02013
2.95478
2.89716
2.82824
2.74376
2.66959
2.59091
2.54411
2.4971
2.45603
2.41209
2.38137
2.35535
2.33144
2.31057
2.28715
2.26902
2.24982
2.23304
2.2161
2.2018
2.18851
2.1748
2.16082
2.14864
2.13802
2.1277
2.11864
2.11006
2.10143
2.09263
2.08353
2.07417
2.06458
2.05543
2.04638
2.03804
2.02998
2.02276
2.01569
2.00901
2.00234
1.99605
1.98975
1.98383
1.97787
1.97239
1.967
1.96211
1.95722
1.95235
1.94748
1.94271
1.93783
1.93284
1.92762
1.91915
1.91871
1.92472
1.712
1.77459
1.8626
2.02803
2.22073
2.38338
2.4147
2.47763
2.61304
2.76473
2.85831
2.93641
2.95045
2.94271
2.93868
3.01293
3.04912
3.06497
3.08584
3.08701
3.08208
3.07161
3.01881
3.01729
3.02772
3.03071
3.03157
3.03516
3.02625
3.02095
3.01791
3.01033
3.01616
3.04158
3.06502
3.11728
3.12077
3.10552
3.04412
2.92698
2.77413
2.63068
2.54911
2.48779
2.43781
2.38128
2.32854
2.2756
2.25966
2.22706
2.21076
2.18953
2.17355
2.15695
2.1437
2.13023
2.1138
2.10069
2.0871
2.076
2.06585
2.05539
2.04514
2.03503
2.02473
2.01519
2.00567
1.99702
1.98808
1.98093
1.9744
1.96784
1.96121
1.95432
1.94713
1.93976
1.93226
1.92452
1.91646
1.90917
1.90253
1.89616
1.89018
1.88455
1.87907
1.8736
1.86817
1.86282
1.85764
1.85306
1.84879
1.84449
1.84043
1.83638
1.83227
1.82796
1.82322
1.81605
1.81329
1.81905
1.7403
1.71367
1.74288
1.82314
1.92846
2.06434
2.1423
2.11719
2.21169
2.35415
2.48024
2.61652
2.73032
2.76429
2.77164
2.78332
2.82966
2.88623
2.93496
2.98422
3.01179
3.02095
3.01906
3.01552
3.01026
3.01093
3.01183
3.01934
3.02262
3.01996
3.01454
3.01722
3.02801
3.04658
3.04268
2.99735
2.89839
2.76766
2.59744
2.49024
2.37015
2.30357
2.25726
2.21457
2.18077
2.13138
2.11085
2.0835
2.07761
2.06309
2.06187
2.0548
2.04166
2.03427
2.0273
2.01727
2.009
2.00067
1.99312
1.98355
1.97354
1.96626
1.95929
1.95208
1.9443
1.93566
1.92613
1.91737
1.91059
1.90479
1.89926
1.89371
1.88804
1.88206
1.87566
1.8688
1.86139
1.8548
1.84869
1.84253
1.83618
1.82962
1.82293
1.81697
1.81182
1.80699
1.8022
1.79754
1.79307
1.78871
1.78444
1.78011
1.77571
1.77162
1.76765
1.7636
1.75924
1.75318
1.74943
1.75523
1.8076
1.72151
1.71458
1.74868
1.79516
1.85639
1.92559
1.88986
1.9628
2.08277
2.18672
2.27853
2.38471
2.46059
2.48061
2.51211
2.56559
2.6302
2.68769
2.76216
2.80132
2.84436
2.88053
2.90816
2.92694
2.94123
2.95126
2.95962
2.96634
2.97057
2.97969
2.98105
2.96656
2.92807
2.85357
2.7194
2.52015
2.36969
2.20834
2.1481
2.08345
2.05533
2.04219
2.03192
2.01258
1.98779
1.98537
1.97213
1.95807
1.95527
1.97017
1.97008
1.96138
1.95873
1.95017
1.94436
1.94061
1.93648
1.93157
1.92471
1.91667
1.91018
1.90446
1.89828
1.89133
1.88342
1.87593
1.86989
1.86439
1.85858
1.85258
1.84654
1.84035
1.83396
1.82784
1.82235
1.8168
1.81119
1.80545
1.79941
1.79308
1.78667
1.78084
1.77577
1.77096
1.76613
1.76128
1.75638
1.75132
1.74668
1.74258
1.73844
1.73447
1.73062
1.72676
1.72278
1.71844
1.71286
1.70792
1.71358
1.88424
1.76469
1.71919
1.71537
1.73032
1.74663
1.77361
1.74159
1.74288
1.79667
1.88155
1.9576
2.02868
2.10114
2.15371
2.18727
2.24074
2.30623
2.37293
2.43696
2.50588
2.56138
2.61776
2.67478
2.7132
2.75382
2.78506
2.82273
2.84345
2.86565
2.89395
2.87954
2.83517
2.74485
2.58699
2.36433
2.14347
2.01144
1.91287
1.87665
1.84063
1.83604
1.84274
1.85443
1.87586
1.90925
1.95985
1.93411
1.90057
1.90005
1.89448
1.89479
1.90169
1.90923
1.90546
1.90049
1.8951
1.89155
1.8901
1.88871
1.8851
1.87825
1.86994
1.86426
1.85955
1.85476
1.84926
1.84278
1.83539
1.8284
1.82275
1.81763
1.81248
1.80712
1.80146
1.79561
1.78963
1.78355
1.77771
1.77203
1.76649
1.76105
1.75584
1.75079
1.74582
1.74083
1.73587
1.73098
1.72608
1.72188
1.71791
1.71384
1.70974
1.70557
1.70132
1.69696
1.69233
1.68662
1.68154
1.68739
1.91694
1.8261
1.75148
1.72165
1.72326
1.71698
1.70896
1.6863
1.65495
1.66369
1.70854
1.76903
1.82076
1.8739
1.92179
1.93276
1.94013
1.9751
2.03424
2.09053
2.15824
2.22971
2.28284
2.34204
2.39526
2.45966
2.51058
2.57489
2.61002
2.65196
2.76699
2.71084
2.59501
2.43279
2.22661
2.00319
1.88716
1.79982
1.74182
1.71457
1.68023
1.67998
1.68166
1.6902
1.71158
1.74291
1.79352
1.85309
1.91905
1.89551
1.84831
1.84896
1.85099
1.86085
1.87885
1.87707
1.87058
1.86726
1.86351
1.86095
1.85869
1.8555
1.85105
1.84692
1.84146
1.83484
1.82776
1.8217
1.81637
1.81116
1.80591
1.80063
1.79529
1.78985
1.78423
1.77823
1.77193
1.76633
1.76089
1.75541
1.74993
1.74448
1.73899
1.73381
1.7289
1.72403
1.71917
1.71443
1.70964
1.70543
1.70146
1.69738
1.69322
1.68899
1.68467
1.68027
1.67555
1.66989
1.66417
1.66977
1.91993
1.86217
1.7988
1.75974
1.73046
1.71814
1.70284
1.67608
1.64079
1.60422
1.6103
1.63719
1.67143
1.701
1.72817
1.75216
1.74883
1.76234
1.7983
1.84926
1.89245
1.94343
1.98498
2.03038
2.07391
2.12201
2.17697
2.23755
2.30228
2.44608
2.51237
2.43388
2.30438
2.14388
1.93951
1.79777
1.7304
1.67826
1.65476
1.62872
1.59866
1.5854
1.57897
1.58406
1.59284
1.61228
1.65278
1.7012
1.76286
1.86807
1.89716
1.86968
1.84114
1.83046
1.83254
1.84215
1.85299
1.85336
1.84916
1.84389
1.83864
1.83785
1.83593
1.83253
1.82722
1.82002
1.8145
1.80942
1.80412
1.79942
1.79465
1.7896
1.78424
1.77866
1.77344
1.76797
1.76227
1.75641
1.75044
1.7446
1.73898
1.7334
1.72791
1.72313
1.71838
1.71357
1.70874
1.70391
1.69897
1.69457
1.69056
1.68648
1.68228
1.67796
1.67354
1.66901
1.66415
1.65834
1.6523
1.65793
1.91075
1.86576
1.8154
1.78994
1.74977
1.73223
1.70909
1.67844
1.64099
1.60739
1.57733
1.5836
1.59677
1.61475
1.62812
1.64025
1.63359
1.63183
1.64143
1.66697
1.70132
1.73123
1.76334
1.7942
1.82862
1.86454
1.90611
1.96829
2.05719
2.31223
2.28721
2.18637
2.0747
1.93915
1.77803
1.71094
1.66732
1.63438
1.6013
1.56857
1.55113
1.54395
1.53354
1.52686
1.528
1.53768
1.55775
1.5808
1.62581
1.69073
1.76546
1.89271
1.87864
1.82538
1.82433
1.81871
1.82051
1.82748
1.83628
1.83433
1.83204
1.82721
1.82369
1.81954
1.81614
1.81218
1.80722
1.8016
1.79629
1.79108
1.78577
1.78031
1.77481
1.76889
1.76382
1.7588
1.75364
1.74828
1.74264
1.73681
1.73116
1.72547
1.72029
1.71558
1.71088
1.70612
1.70134
1.69657
1.69176
1.68716
1.683
1.67883
1.67458
1.67023
1.66583
1.66129
1.65641
1.65054
1.64431
1.65008
1.89966
1.86276
1.82552
1.79966
1.77227
1.75182
1.72355
1.69164
1.65487
1.61506
1.58361
1.56536
1.57018
1.57846
1.59296
1.59303
1.58085
1.56744
1.56864
1.57652
1.59505
1.61838
1.63673
1.65607
1.67842
1.70384
1.74707
1.81403
1.96292
2.22228
2.1044
2.0339
1.94174
1.81957
1.72402
1.6827
1.64288
1.60997
1.5751
1.54955
1.52713
1.51536
1.50434
1.50562
1.50476
1.50375
1.50691
1.51201
1.53167
1.56418
1.61603
1.70007
1.79949
1.91225
1.86806
1.83809
1.80524
1.81111
1.81167
1.8228
1.8203
1.81797
1.81322
1.80841
1.80276
1.80131
1.79887
1.79415
1.78804
1.7823
1.77668
1.77106
1.76518
1.75932
1.75425
1.74921
1.74406
1.73872
1.7332
1.72738
1.72203
1.71701
1.71204
1.70732
1.70259
1.69785
1.69315
1.68851
1.68382
1.67946
1.67543
1.67134
1.66712
1.66277
1.65829
1.65364
1.64859
1.64253
1.636
1.64191
1.88932
1.85354
1.82075
1.79685
1.78067
1.76029
1.73967
1.71245
1.67624
1.63385
1.60059
1.5687
1.55971
1.56309
1.56937
1.56557
1.55849
1.55079
1.53783
1.52964
1.53263
1.54255
1.5555
1.5708
1.58943
1.61773
1.66376
1.76546
1.95679
2.10737
2.00511
1.95591
1.87763
1.78001
1.73857
1.69589
1.65418
1.61662
1.58147
1.55979
1.53725
1.51298
1.49711
1.48508
1.48844
1.49055
1.48806
1.48321
1.48403
1.49657
1.525
1.57043
1.63434
1.71707
1.84722
1.87238
1.82163
1.80706
1.78123
1.78645
1.78821
1.79426
1.7917
1.78994
1.78454
1.77989
1.7776
1.77438
1.76915
1.76366
1.75794
1.7516
1.74576
1.74085
1.73639
1.73194
1.72718
1.72207
1.71669
1.71179
1.70705
1.70234
1.69766
1.6931
1.68868
1.68426
1.6799
1.67564
1.67137
1.66727
1.66338
1.65945
1.65535
1.65109
1.64665
1.64198
1.63688
1.63075
1.62413
1.6304
1.87989
1.84455
1.81275
1.79129
1.77863
1.7619
1.74684
1.72409
1.69382
1.6609
1.62547
1.58795
1.56254
1.55764
1.55858
1.55733
1.55224
1.54214
1.52622
1.52027
1.50846
1.50513
1.51011
1.52342
1.54387
1.58184
1.66221
1.82184
2.13037
2.0239
1.96561
1.90713
1.83333
1.79294
1.75235
1.7103
1.67631
1.64355
1.61564
1.59162
1.56737
1.54585
1.53142
1.51676
1.50083
1.4808
1.46933
1.46683
1.47046
1.47565
1.47948
1.48965
1.51199
1.55853
1.62942
1.72419
1.86995
1.8422
1.79335
1.76878
1.75436
1.75844
1.76487
1.77032
1.76757
1.763
1.75848
1.75482
1.74882
1.74378
1.73974
1.73465
1.72786
1.72365
1.71921
1.71459
1.70957
1.70407
1.69773
1.69165
1.68712
1.68287
1.67882
1.67497
1.67111
1.66713
1.66304
1.65884
1.65456
1.65016
1.64611
1.64222
1.63827
1.63423
1.63004
1.62561
1.62067
1.61458
1.6076
1.61387
1.87332
1.84011
1.80582
1.78215
1.77082
1.75813
1.74403
1.72602
1.70535
1.67985
1.64718
1.61339
1.58725
1.56331
1.5594
1.55851
1.55079
1.54186
1.53378
1.5227
1.504
1.48813
1.49414
1.50803
1.53583
1.60296
1.73594
2.04454
2.03448
1.94878
1.91028
1.8729
1.83326
1.80144
1.76618
1.72996
1.69885
1.67038
1.6444
1.61804
1.59445
1.57661
1.55723
1.53734
1.51745
1.49889
1.48763
1.47791
1.46779
1.45647
1.4587
1.45282
1.45178
1.46858
1.50397
1.5629
1.64531
1.74478
1.85378
1.81159
1.78454
1.73715
1.75066
1.75216
1.75779
1.75601
1.75234
1.74771
1.74257
1.73448
1.73121
1.72779
1.72313
1.71658
1.71128
1.70712
1.70295
1.69861
1.694
1.68873
1.68409
1.67935
1.67444
1.66941
1.66449
1.65975
1.65517
1.65063
1.64609
1.64152
1.63688
1.63247
1.62813
1.62379
1.61945
1.61502
1.6102
1.60429
1.5973
1.6038
1.86935
1.83806
1.80317
1.77695
1.7653
1.7511
1.73685
1.72461
1.7075
1.68513
1.66128
1.6338
1.60513
1.58669
1.56738
1.56002
1.55151
1.54803
1.53852
1.52318
1.50437
1.50045
1.50686
1.51882
1.56188
1.67705
1.90597
2.02753
1.93796
1.91509
1.89161
1.86732
1.84058
1.81281
1.78306
1.75242
1.72426
1.69652
1.67061
1.64347
1.62245
1.60185
1.58036
1.55764
1.53984
1.52676
1.51032
1.49061
1.46925
1.44489
1.43606
1.43328
1.43455
1.43937
1.44455
1.4614
1.5037
1.57222
1.6707
1.82661
1.81702
1.76296
1.75403
1.72813
1.73336
1.73672
1.74302
1.74113
1.73519
1.72697
1.72126
1.71768
1.71401
1.70976
1.70463
1.69999
1.6958
1.6913
1.68705
1.68257
1.67786
1.67309
1.66828
1.66333
1.65838
1.65384
1.64956
1.64544
1.64132
1.63713
1.63276
1.62841
1.62411
1.61971
1.61519
1.61049
1.60533
1.59903
1.59115
1.59761
1.87144
1.83926
1.80472
1.77341
1.76263
1.7497
1.73249
1.71999
1.70414
1.68587
1.66661
1.64445
1.61482
1.59934
1.5858
1.56748
1.5569
1.55124
1.54238
1.53042
1.51525
1.51716
1.52584
1.55732
1.64472
1.80973
2.02115
1.95635
1.90068
1.89121
1.8794
1.86443
1.84568
1.82379
1.79967
1.77317
1.74597
1.71954
1.69271
1.66606
1.64459
1.6219
1.59725
1.57792
1.56314
1.54381
1.52367
1.50179
1.48269
1.46483
1.45234
1.44174
1.43079
1.42453
1.41988
1.42424
1.43642
1.46606
1.51758
1.5928
1.69049
1.83969
1.80566
1.7694
1.72011
1.7155
1.72257
1.72632
1.72593
1.72205
1.71724
1.71035
1.70235
1.70039
1.698
1.69511
1.69099
1.68538
1.67734
1.67217
1.66824
1.66416
1.66007
1.65586
1.65146
1.64713
1.64316
1.63943
1.63567
1.63176
1.62754
1.62302
1.61873
1.61445
1.61001
1.60534
1.60014
1.59366
1.58519
1.59167
1.87659
1.84167
1.80822
1.76994
1.7592
1.74943
1.73007
1.71579
1.70309
1.68715
1.66818
1.64579
1.62138
1.60375
1.5896
1.57578
1.5614
1.55191
1.54395
1.53544
1.53801
1.54255
1.56208
1.63524
1.78641
2.02557
1.96589
1.89885
1.88984
1.88288
1.87576
1.86558
1.85038
1.83137
1.80958
1.78671
1.76273
1.73749
1.71078
1.68629
1.66396
1.63833
1.61579
1.59733
1.57682
1.5548
1.53581
1.51652
1.4993
1.48189
1.46827
1.45651
1.4437
1.42951
1.41871
1.41481
1.41977
1.41951
1.43301
1.46853
1.53219
1.62231
1.74393
1.81161
1.76489
1.74817
1.69843
1.70224
1.70906
1.71579
1.7135
1.70937
1.69815
1.69301
1.68922
1.68548
1.68145
1.677
1.67131
1.66414
1.6604
1.65748
1.65424
1.65066
1.64693
1.64315
1.63935
1.63543
1.63125
1.62674
1.62188
1.61672
1.61206
1.60769
1.60318
1.59847
1.59329
1.58682
1.5781
1.58482
1.88696
1.84887
1.81558
1.77405
1.75727
1.75073
1.73202
1.71348
1.70421
1.6896
1.67075
1.6476
1.62123
1.60289
1.5915
1.57882
1.56551
1.54537
1.54253
1.54831
1.55698
1.57585
1.63798
1.77268
2.03179
1.97099
1.90444
1.87864
1.87593
1.87304
1.86831
1.86031
1.84836
1.8329
1.81451
1.794
1.7717
1.74747
1.72077
1.69898
1.67475
1.6499
1.63099
1.61011
1.58722
1.56604
1.54877
1.53141
1.51353
1.49586
1.48209
1.46845
1.45478
1.44105
1.4278
1.4105
1.4037
1.4029
1.40671
1.4116
1.43296
1.47743
1.55609
1.6503
1.80389
1.79133
1.74739
1.72116
1.68333
1.68396
1.68962
1.68999
1.68836
1.68485
1.6815
1.67674
1.6712
1.66737
1.66324
1.65841
1.65218
1.64822
1.64616
1.64389
1.64133
1.63852
1.63533
1.63167
1.62747
1.6227
1.6172
1.6109
1.60531
1.60036
1.59533
1.59022
1.58485
1.57835
1.56972
1.57686
1.90445
1.85934
1.81981
1.77795
1.75377
1.75131
1.73718
1.71279
1.70319
1.69298
1.6763
1.65342
1.62505
1.59988
1.59101
1.57974
1.56347
1.54316
1.54782
1.56031
1.58096
1.63978
1.76355
2.01184
1.97767
1.917
1.88138
1.87409
1.87172
1.86686
1.86027
1.85185
1.8418
1.82955
1.81512
1.79699
1.77584
1.75268
1.72772
1.70378
1.67644
1.65998
1.64008
1.61795
1.59668
1.57951
1.56097
1.54342
1.52505
1.50721
1.49226
1.47825
1.46417
1.44969
1.43779
1.42584
1.41258
1.39594
1.39091
1.38758
1.39366
1.40593
1.44104
1.49594
1.58649
1.68686
1.79546
1.76205
1.73047
1.6821
1.66698
1.67484
1.67854
1.67882
1.67811
1.6758
1.67016
1.66112
1.65477
1.64989
1.64516
1.64194
1.63901
1.6364
1.63412
1.63185
1.62939
1.62641
1.62249
1.61767
1.61201
1.60532
1.59942
1.59428
1.58896
1.58354
1.57785
1.57107
1.56166
1.56871
1.90996
1.87293
1.83261
1.79047
1.75007
1.74585
1.7384
1.71569
1.70132
1.69209
1.67844
1.65938
1.63279
1.60626
1.59309
1.57872
1.55071
1.55203
1.56161
1.57659
1.63038
1.74781
1.99908
1.99808
1.93741
1.899
1.88096
1.87321
1.86544
1.85703
1.84799
1.83862
1.82879
1.81798
1.80524
1.79055
1.77304
1.75383
1.73246
1.7092
1.68779
1.66613
1.64348
1.6223
1.60758
1.59041
1.57196
1.55322
1.53368
1.51685
1.49995
1.4863
1.47202
1.46052
1.44948
1.43557
1.41985
1.40602
1.39108
1.37775
1.38103
1.38306
1.391
1.41199
1.45461
1.51621
1.60458
1.75662
1.75689
1.71005
1.69803
1.65668
1.65844
1.66672
1.66719
1.6681
1.667
1.66265
1.6537
1.64262
1.6407
1.63944
1.63755
1.63526
1.63246
1.62909
1.62557
1.62187
1.61763
1.61257
1.60671
1.59995
1.59313
1.58828
1.5832
1.57782
1.57202
1.56522
1.55513
1.56205
1.97289
1.88962
1.84739
1.80385
1.75717
1.74013
1.73705
1.71961
1.70233
1.68979
1.67685
1.66029
1.63865
1.61169
1.60137
1.58488
1.56203
1.56658
1.58042
1.62493
1.72806
1.95275
2.00297
1.93291
1.90878
1.88467
1.87003
1.85848
1.84973
1.84183
1.83349
1.82473
1.8159
1.8067
1.79656
1.78479
1.77106
1.75483
1.7369
1.71653
1.69665
1.67414
1.65413
1.63479
1.61563
1.5974
1.5807
1.5633
1.54639
1.52961
1.51365
1.50148
1.48898
1.47864
1.46609
1.45103
1.43782
1.42539
1.41227
1.397
1.38366
1.38069
1.37789
1.38052
1.3885
1.41224
1.46534
1.53713
1.62713
1.76055
1.73153
1.6916
1.66445
1.63347
1.63739
1.64379
1.65157
1.65117
1.64875
1.64234
1.63189
1.63031
1.6303
1.62928
1.62716
1.62387
1.61959
1.61525
1.61066
1.60551
1.59969
1.5929
1.58577
1.58108
1.57614
1.57076
1.56485
1.55799
1.54775
1.55476
1.98224
1.91201
1.85757
1.8168
1.77249
1.73601
1.73331
1.72219
1.70093
1.69126
1.67882
1.66355
1.64474
1.61908
1.60074
1.59801
1.59248
1.59705
1.62418
1.71739
1.90155
2.00616
1.92908
1.91735
1.89766
1.87557
1.8611
1.85163
1.8419
1.83204
1.82468
1.8169
1.80816
1.79896
1.78918
1.77859
1.76689
1.75362
1.7386
1.72185
1.70363
1.68412
1.66485
1.64507
1.62647
1.60871
1.59096
1.57422
1.55742
1.5412
1.52559
1.51232
1.50094
1.48942
1.4759
1.46126
1.44943
1.43617
1.42073
1.40291
1.39144
1.37911
1.37266
1.37506
1.37254
1.37411
1.38964
1.41977
1.47187
1.55161
1.6544
1.72276
1.68366
1.66592
1.63178
1.63067
1.63478
1.64227
1.6436
1.64118
1.63519
1.62746
1.62293
1.62195
1.6203
1.61752
1.61378
1.60953
1.60492
1.59913
1.59257
1.58516
1.5776
1.57261
1.56753
1.56206
1.55614
1.54916
1.53925
1.54664
2.05208
1.95683
1.85984
1.82549
1.78948
1.74523
1.72912
1.72503
1.70391
1.68591
1.68023
1.66952
1.65238
1.6263
1.60234
1.61496
1.62858
1.6499
1.72536
1.86775
2.01951
1.93484
1.92965
1.91278
1.88823
1.87664
1.86483
1.85259
1.83934
1.82788
1.81854
1.81034
1.80131
1.79173
1.78211
1.7723
1.76217
1.75096
1.73862
1.7244
1.70868
1.69179
1.67391
1.65548
1.63713
1.61908
1.60123
1.5837
1.56707
1.55222
1.53666
1.52361
1.51042
1.49574
1.4798
1.46837
1.45501
1.44005
1.42151
1.40773
1.39573
1.38966
1.38275
1.37235
1.35982
1.35982
1.36403
1.36898
1.38282
1.42375
1.48856
1.57439
1.70122
1.69647
1.6597
1.65241
1.62452
1.62562
1.63206
1.63757
1.63631
1.63138
1.62335
1.61561
1.61307
1.61012
1.6065
1.60223
1.5978
1.59258
1.58556
1.57683
1.56768
1.56226
1.55724
1.55189
1.54614
1.53894
1.52929
1.53731
2.19262
1.92367
1.89085
1.83694
1.80266
1.76119
1.7311
1.72752
1.71274
1.68812
1.68053
1.67337
1.65921
1.63256
1.62236
1.64036
1.66791
1.74684
1.8844
2.03981
1.94618
1.94198
1.92564
1.90193
1.89302
1.88182
1.86893
1.85445
1.8381
1.82505
1.81413
1.80441
1.79546
1.78628
1.77677
1.76722
1.75744
1.74716
1.73609
1.72386
1.7106
1.69605
1.68067
1.66427
1.64738
1.62984
1.61241
1.59468
1.57841
1.56202
1.54802
1.53433
1.52125
1.50694
1.49634
1.48355
1.46866
1.45058
1.43046
1.42048
1.41035
1.40302
1.39341
1.38211
1.37031
1.36114
1.35536
1.3489
1.35253
1.36324
1.3879
1.43439
1.5111
1.59441
1.71915
1.69505
1.66317
1.63747
1.61385
1.61609
1.6214
1.62031
1.6176
1.61154
1.60367
1.59965
1.596
1.59191
1.58752
1.5824
1.57646
1.56855
1.55731
1.54961
1.54567
1.54153
1.53655
1.52969
1.51995
1.52835
2.48415
2.09446
1.91215
1.85263
1.81878
1.78567
1.74532
1.73309
1.72667
1.70141
1.68366
1.67777
1.66707
1.65055
1.65794
1.67928
1.75605
1.89943
2.08502
1.98393
1.96479
1.9284
1.90235
1.9039
1.8981
1.88723
1.87184
1.85331
1.83601
1.82301
1.81063
1.79998
1.78987
1.78127
1.77249
1.76344
1.75407
1.74445
1.7344
1.72378
1.71231
1.69982
1.68618
1.67153
1.65571
1.63912
1.62181
1.60421
1.58709
1.5706
1.55565
1.54219
1.52802
1.51544
1.50395
1.49015
1.47369
1.45433
1.43841
1.42508
1.41543
1.40585
1.39571
1.38629
1.3768
1.3654
1.35519
1.34332
1.34299
1.34519
1.34554
1.35535
1.39219
1.45392
1.54227
1.69495
1.69255
1.64709
1.63612
1.61012
1.60165
1.60401
1.60534
1.60303
1.5995
1.59475
1.58868
1.58208
1.57955
1.57566
1.56973
1.56097
1.54787
1.53856
1.53548
1.53231
1.52779
1.52126
1.51063
1.51906
2.27643
2.28015
1.98035
1.90191
1.82463
1.79656
1.76293
1.7343
1.73075
1.7191
1.68977
1.67597
1.67874
1.6836
1.70324
1.7719
1.90912
2.1081
2.01555
1.99873
1.96031
1.92012
1.91245
1.90448
1.89649
1.88609
1.87255
1.85665
1.83902
1.82322
1.81001
1.79852
1.78799
1.77917
1.77038
1.76144
1.75228
1.7425
1.73239
1.72207
1.71124
1.69982
1.68743
1.67389
1.65928
1.64381
1.62752
1.61062
1.59357
1.57733
1.56281
1.54954
1.53526
1.52101
1.50637
1.49168
1.47707
1.46188
1.44571
1.42867
1.4192
1.40942
1.40162
1.39343
1.38425
1.37414
1.3627
1.35143
1.337
1.33095
1.32981
1.32901
1.33781
1.36936
1.41856
1.48929
1.57426
1.70374
1.67202
1.63265
1.61239
1.58223
1.58356
1.58892
1.5872
1.58374
1.579
1.57522
1.57087
1.56646
1.56077
1.5516
1.5379
1.53121
1.52769
1.52402
1.51953
1.5136
1.5025
1.5109
1.51852
2.30313
2.14957
1.89517
1.85747
1.80495
1.77077
1.73758
1.72818
1.71873
1.69572
1.68885
1.70278
1.72883
1.80244
1.93697
2.13118
2.05843
2.029
1.96386
1.938
1.93508
1.92618
1.91442
1.90007
1.88435
1.87075
1.85715
1.8435
1.83024
1.81723
1.80426
1.79148
1.77898
1.7679
1.75707
1.74699
1.73691
1.72702
1.71684
1.70646
1.69595
1.68493
1.67324
1.66064
1.64682
1.63198
1.61612
1.59967
1.58354
1.56914
1.55514
1.54121
1.52666
1.51143
1.49763
1.4827
1.46719
1.45003
1.43641
1.4256
1.41751
1.40912
1.40049
1.39108
1.38138
1.37083
1.35922
1.34634
1.33546
1.32453
1.32664
1.33127
1.33532
1.35163
1.38075
1.43691
1.53214
1.65753
1.66565
1.62444
1.61353
1.5933
1.57296
1.5739
1.57875
1.5767
1.57181
1.56606
1.55746
1.54861
1.53942
1.52684
1.52178
1.51825
1.51453
1.5105
1.50517
1.4943
1.50264
1.15711
1.72774
2.39481
2.08003
1.8765
1.8216
1.77357
1.74511
1.72268
1.69896
1.70352
1.71335
1.7397
1.82407
1.97492
2.15802
2.08066
2.05406
1.99256
1.96426
1.96076
1.95049
1.93708
1.92117
1.90655
1.89279
1.87863
1.86423
1.84997
1.83605
1.82199
1.80789
1.79362
1.7796
1.76597
1.7538
1.74173
1.73119
1.72053
1.71044
1.7001
1.68958
1.67882
1.66751
1.65544
1.64235
1.62826
1.61355
1.59835
1.58331
1.56898
1.55473
1.54136
1.52789
1.51428
1.5001
1.48542
1.46998
1.45317
1.44053
1.43214
1.42369
1.41455
1.40527
1.39514
1.3859
1.37612
1.36591
1.35428
1.3452
1.33755
1.32759
1.32362
1.32744
1.32942
1.33694
1.36125
1.40832
1.47437
1.56593
1.69683
1.66738
1.62666
1.60477
1.56625
1.56406
1.56669
1.56584
1.56217
1.55715
1.54962
1.53966
1.52444
1.51712
1.51233
1.50666
1.50253
1.49706
1.48576
1.49424
1.04691
1.29666
2.27655
2.28289
1.98446
1.87484
1.79056
1.74946
1.70606
1.70236
1.72047
1.74775
1.83443
1.99855
2.20156
2.10024
2.08217
2.01921
1.99039
1.98234
1.97014
1.95613
1.94121
1.92568
1.91032
1.89605
1.88198
1.86784
1.85344
1.83865
1.82361
1.80831
1.7931
1.77787
1.76343
1.74935
1.73542
1.72256
1.71001
1.69973
1.69037
1.68048
1.67023
1.65968
1.64867
1.63691
1.62458
1.61179
1.59883
1.5864
1.57417
1.56168
1.54905
1.53612
1.52278
1.50901
1.49459
1.47908
1.46326
1.45113
1.44205
1.43334
1.4249
1.41606
1.40769
1.39928
1.3904
1.38101
1.36998
1.36087
1.35462
1.34818
1.34075
1.33553
1.33084
1.34186
1.34286
1.35126
1.38941
1.44991
1.52401
1.64628
1.67034
1.63415
1.6159
1.59335
1.56536
1.56044
1.56099
1.5574
1.55086
1.54131
1.53
1.51692
1.51188
1.50605
1.50006
1.49341
1.48208
1.48965
1.00959
1.07609
1.40693
2.16617
2.08043
1.8495
1.80041
1.74895
1.71346
1.72414
1.75105
1.84286
2.01366
2.23091
2.11728
2.09164
2.04408
2.01486
2.00585
1.99183
1.97635
1.96018
1.9433
1.92771
1.91189
1.89545
1.87873
1.86222
1.84625
1.83074
1.81545
1.80019
1.78499
1.76973
1.75494
1.74085
1.72703
1.71431
1.70157
1.69126
1.68232
1.67331
1.66386
1.65413
1.64402
1.63336
1.62201
1.61055
1.59992
1.58937
1.57844
1.56699
1.55516
1.54264
1.52948
1.51581
1.50142
1.4858
1.47158
1.4609
1.45192
1.44435
1.43657
1.42883
1.42094
1.41292
1.40486
1.39642
1.38695
1.3785
1.3737
1.36897
1.36452
1.35965
1.35438
1.34694
1.3485
1.35159
1.36004
1.38388
1.42368
1.49525
1.5907
1.71319
1.69159
1.65009
1.62407
1.59138
1.56437
1.55667
1.55406
1.54906