/*--------------------------------*- C++ -*----------------------------------*\
| =========                 |                                                 |
| \\      /  F ield         | OpenFOAM: The Open Source CFD Toolbox           |
|  \\    /   O peration     | Version:  v2106                                 |
|   \\  /    A nd           | Website:  www.openfoam.com                      |
|    \\/     M anipulation  |                                                 |
\*---------------------------------------------------------------------------*/
FoamFile
{
    version     2.0;
    format      ascii;
    arch        "LSB;label=32;scalar=64";
    class       volVectorField;
    location    "19";
    object      U;
}
// * * * * * * * * * * * * * * * * * * * * * * * * * * * * * * * * * * * * * //

dimensions      [0 1 -1 0 0 0 0];

internalField   nonuniform List<vector> 
5250
(
(3 -7.00851e-15 0)
(3 9.40094e-15 0)
(3 9.38187e-14 0)
(3 6.29374e-13 0)
(3 7.50777e-12 0)
(3 5.36109e-11 0)
(3 5.98364e-10 0)
(3 4.63404e-09 0)
(3 4.69027e-08 0)
(3.00001 4.05093e-07 0)
(3.00009 3.60447e-06 0)
(3.00068 3.59353e-05 0)
(3.00793 0.000282475 0)
(3.06064 0.00318831 0)
(2.63173 0.0074071 0)
(1.02382 0.0514912 0)
(0.321564 0.014286 0)
(0.52255 0.0181929 0)
(0.433747 0.0210852 0)
(0.372083 0.0215305 0)
(0.324544 0.0217839 0)
(0.259234 0.0241662 0)
(0.194265 0.0274166 0)
(0.120178 0.0307008 0)
(0.0446557 0.0374272 0)
(3 -1.64891e-14 0)
(3 2.19476e-14 0)
(3 2.65514e-13 0)
(3 1.39109e-12 0)
(3 2.13294e-11 0)
(3 1.17495e-10 0)
(3 1.69955e-09 0)
(3 1.0133e-08 0)
(3 1.33365e-07 0)
(3.00001 8.96724e-07 0)
(3.00008 1.02342e-05 0)
(3.00069 8.24481e-05 0)
(3.00711 0.000775305 0)
(3.06334 0.00803114 0)
(2.64865 0.0162092 0)
(1.0648 0.134359 0)
(0.320669 0.0469403 0)
(0.528724 0.0560723 0)
(0.440614 0.0580267 0)
(0.373868 0.0603034 0)
(0.322645 0.0707659 0)
(0.25525 0.0790155 0)
(0.190026 0.0862365 0)
(0.114496 0.0927846 0)
(0.0397737 0.0996789 0)
(3 -1.73692e-14 0)
(3 2.41628e-14 0)
(3 4.19162e-13 0)
(3 1.22102e-12 0)
(3 3.39921e-11 0)
(3 1.01393e-10 0)
(3 2.73295e-09 0)
(3 8.70176e-09 0)
(3 2.14035e-07 0)
(3.00001 8.39034e-07 0)
(3.00007 1.61127e-05 0)
(3.0007 9.30076e-05 0)
(3.00598 0.00117208 0)
(3.06547 0.0113233 0)
(2.67936 0.0163918 0)
(1.15264 0.223513 0)
(0.310879 0.0760767 0)
(0.533396 0.0938166 0)
(0.441318 0.101591 0)
(0.369194 0.110473 0)
(0.320567 0.117978 0)
(0.2541 0.128661 0)
(0.189395 0.142014 0)
(0.115355 0.153986 0)
(0.0397342 0.164915 0)
(3 -1.17825e-14 0)
(3 2.12034e-14 0)
(3 6.01044e-13 0)
(3 -2.55888e-13 0)
(3 5.11442e-11 0)
(3 -1.80838e-11 0)
(3 4.0543e-09 0)
(3 -2.71542e-09 0)
(3 3.13488e-07 0)
(3.00001 5.59473e-09 0)
(3.00005 2.32857e-05 0)
(3.00072 5.21361e-05 0)
(3.00454 0.00156543 0)
(3.06745 0.0141044 0)
(2.71799 0.0206288 0)
(1.2904 0.30309 0)
(0.294144 0.122183 0)
(0.537982 0.137156 0)
(0.440785 0.146201 0)
(0.370121 0.15242 0)
(0.322084 0.166148 0)
(0.255358 0.183911 0)
(0.192954 0.200381 0)
(0.117413 0.217115 0)
(0.0415368 0.229616 0)
(3 -1.70152e-14 0)
(3 2.86987e-14 0)
(3 6.84783e-13 0)
(3 -2.76905e-12 0)
(3 6.13497e-11 0)
(3 -1.3184e-10 0)
(3 5.45647e-09 0)
(3 -2.34783e-08 0)
(3 4.37824e-07 0)
(3.00001 -3.48613e-06 0)
(3.00003 2.99227e-05 0)
(3.00077 -0.000101061 0)
(3.00299 0.00195098 0)
(3.06813 0.0161376 0)
(2.76538 0.0264474 0)
(1.4705 0.372442 0)
(0.288623 0.172978 0)
(0.550043 0.178807 0)
(0.452321 0.188455 0)
(0.376208 0.199462 0)
(0.329854 0.212169 0)
(0.265274 0.231598 0)
(0.199547 0.255898 0)
(0.12648 0.280609 0)
(0.0417958 0.298817 0)
(3 -2.37922e-14 0)
(3 2.70657e-14 0)
(3 -4.67623e-13 0)
(3 -1.50512e-11 0)
(3 1.3791e-10 0)
(3 -2.61201e-10 0)
(3 8.13605e-09 0)
(3 4.67334e-09 0)
(3 5.98899e-07 0)
(3.00001 -1.42323e-06 0)
(3.00003 4.78587e-05 0)
(3.00059 -0.000557323 0)
(3.00149 0.00220035 0)
(3.06722 0.0174823 0)
(2.81832 0.0358305 0)
(1.70291 0.423966 0)
(0.314324 0.238235 0)
(0.569057 0.225949 0)
(0.475516 0.237917 0)
(0.387836 0.246922 0)
(0.34257 0.260591 0)
(0.272433 0.291601 0)
(0.21018 0.317355 0)
(0.130866 0.35034 0)
(0.0480938 0.372588 0)
(3 -4.27868e-14 0)
(3 1.17604e-13 0)
(3 -1.60071e-12 0)
(3 2.30955e-12 0)
(3 -1.04935e-10 0)
(3 -4.38473e-10 0)
(3 8.31612e-09 0)
(3 1.4312e-08 0)
(3 4.80993e-07 0)
(3.00001 2.07718e-06 0)
(2.99998 2.94878e-05 0)
(3.00072 0.000194664 0)
(3.00009 0.00184179 0)
(3.06381 0.0154787 0)
(2.87198 0.027429 0)
(2.03019 0.430701 0)
(0.390318 0.319951 0)
(0.608183 0.283003 0)
(0.526777 0.28846 0)
(0.417731 0.302919 0)
(0.373355 0.307784 0)
(0.301025 0.340167 0)
(0.241898 0.375273 0)
(0.140796 0.421739 0)
(0.070177 0.454625 0)
(3 -3.8787e-15 0)
(3 1.2701e-13 0)
(3 1.56753e-12 0)
(3 1.46819e-11 0)
(3 -1.10715e-10 0)
(3 -4.76035e-11 0)
(3 4.93435e-09 0)
(3 8.54091e-09 0)
(3 2.70937e-07 0)
(3.00002 1.33954e-06 0)
(2.99993 1.88129e-05 0)
(3.00092 0.000138401 0)
(2.99912 0.00144939 0)
(3.0571 0.0135319 0)
(2.91554 0.0392564 0)
(2.18339 0.36093 0)
(0.493825 0.398262 0)
(0.649887 0.353633 0)
(0.583053 0.355476 0)
(0.471411 0.363473 0)
(0.413998 0.363633 0)
(0.326507 0.408231 0)
(0.257816 0.456242 0)
(0.171397 0.503173 0)
(0.0721811 0.558973 0)
(3 4.60286e-14 0)
(3 -4.53891e-13 0)
(3 -2.91918e-13 0)
(3 1.02909e-11 0)
(3 6.1166e-11 0)
(3 8.27284e-10 0)
(3 -1.06642e-08 0)
(3 -8.74565e-09 0)
(3 1.97252e-07 0)
(3.00002 1.45733e-06 0)
(2.99992 1.64114e-05 0)
(3.00084 0.000131204 0)
(2.99858 0.00132554 0)
(3.04801 0.0113625 0)
(2.96193 0.0552755 0)
(2.31206 0.300191 0)
(0.591418 0.450517 0)
(0.678031 0.418374 0)
(0.637366 0.412803 0)
(0.531803 0.440319 0)
(0.476001 0.42718 0)
(0.372718 0.475859 0)
(0.331114 0.518475 0)
(0.221715 0.583481 0)
(0.145486 0.681871 0)
(3 1.7226e-14 0)
(3 3.34778e-14 0)
(3 7.5656e-13 0)
(3 4.3308e-12 0)
(3 5.45583e-11 0)
(3 4.00619e-10 0)
(3 -4.2956e-10 0)
(3 2.68208e-08 0)
(3 9.14421e-08 0)
(3.00002 1.86792e-06 0)
(2.99989 1.11209e-05 0)
(3.00095 0.000139746 0)
(2.99702 0.00106623 0)
(3.04952 0.0112042 0)
(3.00172 0.0600349 0)
(2.443 0.255521 0)
(0.678237 0.503361 0)
(0.700557 0.45626 0)
(0.674091 0.47262 0)
(0.613228 0.492079 0)
(0.543474 0.505742 0)
(0.441005 0.548374 0)
(0.379046 0.609875 0)
(0.29382 0.69805 0)
(0.0986922 0.913991 0)
(3 1.12714e-14 0)
(3 3.96615e-13 0)
(3 3.03463e-12 0)
(3 -3.99842e-12 0)
(3 1.18037e-10 0)
(3 7.21839e-10 0)
(3 9.61789e-09 0)
(3 7.58895e-08 0)
(3 -5.11173e-08 0)
(3.00001 2.81018e-06 0)
(2.99996 5.10366e-06 0)
(3.00046 0.000177785 0)
(2.99933 0.000861916 0)
(3.02535 -0.0429197 0)
(3.02731 0.0696618 0)
(2.56668 0.237076 0)
(0.835253 0.557095 0)
(0.660483 0.46566 0)
(0.703343 0.493509 0)
(0.660411 0.569453 0)
(0.623565 0.576125 0)
(0.52648 0.628532 0)
(0.466232 0.696064 0)
(0.474095 0.799269 0)
(0.41349 1.08711 0)
(3 2.41192e-14 0)
(3 5.80209e-15 0)
(3 1.14268e-12 0)
(3 3.70316e-12 0)
(3 7.43233e-11 0)
(3 4.99132e-10 0)
(3 -1.1584e-09 0)
(3 2.41215e-08 0)
(3 1.91127e-08 0)
(3 1.44448e-06 0)
(3.00005 6.19503e-06 0)
(2.99987 0.000105511 0)
(3.00227 0.000718161 0)
(3.00019 0.00873849 0)
(3.06356 0.0607537 0)
(2.69888 0.227099 0)
(1.08188 0.651624 0)
(0.600278 0.464484 0)
(0.684854 0.50701 0)
(0.696753 0.587471 0)
(0.680755 0.655231 0)
(0.633178 0.701309 0)
(0.595239 0.757282 0)
(0.67871 0.851841 0)
(0.675026 1.00403 0)
(3 -6.94803e-14 0)
(3 8.13067e-14 0)
(3 2.37852e-13 0)
(3 3.07451e-12 0)
(3 5.0914e-11 0)
(3 -9.52399e-11 0)
(3 1.72417e-09 0)
(3 4.23359e-09 0)
(3 4.92499e-08 0)
(3 5.97636e-07 0)
(3.00001 -4.68945e-07 0)
(3.00004 6.26335e-05 0)
(3.00072 -0.000331914 0)
(3.00241 0.00434422 0)
(3.07442 0.045014 0)
(2.8455 0.180727 0)
(1.52322 0.749329 0)
(0.567227 0.50295 0)
(0.680732 0.519207 0)
(0.700414 0.591294 0)
(0.700568 0.674935 0)
(0.731258 0.744732 0)
(0.7243 0.800286 0)
(0.800134 0.885743 0)
(0.874437 0.90214 0)
(3 -3.64606e-15 0)
(3 -1.1606e-15 0)
(3 -3.2997e-13 0)
(3 -1.81687e-12 0)
(3 1.48723e-11 0)
(3 -2.34872e-11 0)
(3 5.10708e-10 0)
(3 -1.77105e-09 0)
(3 1.24752e-08 0)
(3 8.8863e-07 0)
(3.00001 3.50849e-06 0)
(2.99997 5.39513e-05 0)
(3.00076 0.000325282 0)
(2.99957 0.00347409 0)
(3.06169 0.0281627 0)
(2.94248 0.100843 0)
(2.11744 0.79498 0)
(0.654806 0.581361 0)
(0.713782 0.548087 0)
(0.722968 0.591844 0)
(0.731795 0.665153 0)
(0.770905 0.738364 0)
(0.814159 0.801485 0)
(0.893069 0.877562 0)
(0.974789 0.872707 0)
(3 -2.5662e-15 0)
(3 1.50785e-14 0)
(3 9.37722e-14 0)
(3 1.2298e-12 0)
(3 9.75685e-12 0)
(3 -9.43725e-12 0)
(3 5.98193e-10 0)
(3 1.90753e-09 0)
(3 3.67777e-08 0)
(3 2.28111e-07 0)
(3.00004 2.75139e-06 0)
(2.99981 2.11116e-05 0)
(3.00158 0.000242732 0)
(2.9961 0.002036 0)
(3.06278 0.0212463 0)
(2.99483 0.0795201 0)
(2.49129 0.663893 0)
(0.883003 0.691513 0)
(0.789251 0.588374 0)
(0.767715 0.612489 0)
(0.773439 0.663992 0)
(0.809651 0.73212 0)
(0.866425 0.795096 0)
(0.955202 0.866651 0)
(1.0439 0.871317 0)
(3 3.6101e-15 0)
(3 8.63455e-15 0)
(3 6.23628e-13 0)
(3 3.03387e-12 0)
(3 -5.39721e-13 0)
(3 1.07663e-10 0)
(3 3.13694e-10 0)
(3 1.32129e-08 0)
(3 7.56386e-08 0)
(3 -5.22644e-08 0)
(3.00001 3.72823e-06 0)
(3 1.02675e-05 0)
(3.00021 -0.00110777 0)
(3.00038 0.00186758 0)
(3.01946 -0.0670739 0)
(3.03122 0.109886 0)
(2.71548 0.52904 0)
(1.21776 0.809928 0)
(0.821168 0.64023 0)
(0.824319 0.64124 0)
(0.827861 0.67566 0)
(0.854479 0.72774 0)
(0.908168 0.776835 0)
(0.986289 0.836612 0)
(1.08561 0.84883 0)
(3 -9.96521e-16 0)
(3 2.41102e-14 0)
(3 5.39219e-14 0)
(3 1.6325e-12 0)
(3 8.54293e-12 0)
(3 -6.35591e-11 0)
(3 3.55679e-10 0)
(3 1.76653e-10 0)
(3 1.66931e-08 0)
(3 9.53846e-08 0)
(3 -7.70904e-06 0)
(3.00001 1.32102e-05 0)
(2.99942 0.000140157 0)
(3.0042 0.000969364 0)
(2.98473 0.0102072 0)
(3.08334 0.0711976 0)
(2.91011 0.368201 0)
(1.73016 0.90965 0)
(0.830427 0.692976 0)
(0.857945 0.683926 0)
(0.87291 0.70253 0)
(0.893071 0.737775 0)
(0.939074 0.77071 0)
(1.01431 0.809226 0)
(1.10104 0.833842 0)
(3 2.73912e-15 0)
(3 2.47062e-14 0)
(3 2.91077e-14 0)
(3 1.24991e-12 0)
(3 -2.93369e-12 0)
(3 7.47414e-11 0)
(3 5.8766e-10 0)
(3 -1.50419e-09 0)
(3 2.02238e-08 0)
(3 8.67244e-08 0)
(2.99999 1.31213e-06 0)
(3.00004 8.0322e-06 0)
(2.99985 -3.1695e-05 0)
(3.00149 0.000478425 0)
(2.99761 0.00231303 0)
(3.0756 0.0392081 0)
(3.01128 0.208205 0)
(2.3327 0.933355 0)
(0.975985 0.769857 0)
(0.921625 0.715075 0)
(0.925615 0.710967 0)
(0.943838 0.730969 0)
(0.980937 0.756596 0)
(1.04083 0.789753 0)
(1.12386 0.807706 0)
(3 6.26543e-16 0)
(3 3.27405e-16 0)
(3 3.09624e-14 0)
(3 8.97229e-14 0)
(3 1.04167e-12 0)
(3 1.07944e-11 0)
(3 1.52374e-10 0)
(3 1.40385e-09 0)
(3 1.32772e-08 0)
(3 6.06469e-08 0)
(3 -2.70616e-07 0)
(3.00001 6.09525e-06 0)
(3 1.87493e-05 0)
(3.00025 -0.000104258 0)
(3.00096 0.00292066 0)
(3.0223 -0.0347677 0)
(3.05035 0.15596 0)
(2.70594 0.747103 0)
(1.30682 0.861422 0)
(0.985675 0.758486 0)
(0.979281 0.735498 0)
(0.993535 0.744506 0)
(1.02274 0.760267 0)
(1.07061 0.782343 0)
(1.14153 0.793624 0)
(3 3.09614e-16 0)
(3 3.38395e-15 0)
(3 2.04476e-15 0)
(3 1.58834e-13 0)
(3 2.51669e-13 0)
(3 8.33672e-12 0)
(3 3.20584e-11 0)
(3 4.53131e-10 0)
(3 2.42346e-09 0)
(3 3.14266e-08 0)
(3 1.83533e-07 0)
(2.99999 2.32666e-06 0)
(3.00013 1.8032e-05 0)
(2.9994 0.000181534 0)
(3.00465 0.00151964 0)
(2.98684 0.0140831 0)
(3.13778 0.10638 0)
(2.9779 0.526536 0)
(1.87097 0.931191 0)
(1.02911 0.797323 0)
(1.02803 0.76492 0)
(1.04262 0.769397 0)
(1.06724 0.775403 0)
(1.10529 0.782991 0)
(1.16132 0.786853 0)
(3 6.28644e-16 0)
(3 3.28912e-16 0)
(3 1.8632e-14 0)
(3 5.21707e-14 0)
(3 2.18664e-12 0)
(3 1.13495e-11 0)
(3 5.67364e-12 0)
(3 6.30095e-10 0)
(3 -1.16004e-09 0)
(3 3.49934e-08 0)
(3 3.74572e-07 0)
(3 -3.69382e-07 0)
(3.00001 1.06385e-05 0)
(3.00004 1.12324e-06 0)
(3.00043 0.000331793 0)
(3.0035 0.0107079 0)
(3.03805 -0.130179 0)
(3.06742 0.322487 0)
(2.47441 1.00303 0)
(1.20789 0.876755 0)
(1.07936 0.830284 0)
(1.08054 0.790716 0)
(1.10269 0.786895 0)
(1.13906 0.786374 0)
(1.18716 0.783339 0)
(3 1.17996e-16 0)
(3 6.92392e-16 0)
(3 2.42115e-15 0)
(3 2.88901e-14 0)
(3 1.84451e-13 0)
(3 2.02846e-12 0)
(3 1.36947e-11 0)
(3 1.34401e-10 0)
(3 9.62888e-10 0)
(3 8.55731e-09 0)
(3 7.22727e-08 0)
(3 5.63404e-07 0)
(3.00003 5.16812e-06 0)
(2.99998 3.83683e-05 0)
(2.99828 0.000372262 0)
(3.01358 0.00311074 0)
(2.95824 0.0255629 0)
(3.21656 0.194545 0)
(2.9238 0.761776 0)
(1.67252 0.945302 0)
(1.15483 0.854203 0)
(1.13355 0.805849 0)
(1.14709 0.799829 0)
(1.1755 0.792718 0)
(1.21521 0.786572 0)
(3 2.23607e-16 0)
(3 2.54437e-16 0)
(3 9.54501e-15 0)
(3 1.1733e-13 0)
(3 -5.71358e-14 0)
(3 4.30229e-12 0)
(3 7.47682e-12 0)
(3 2.34313e-10 0)
(3 1.53102e-09 0)
(3 -7.741e-10 0)
(3 9.56111e-08 0)
(3 5.79223e-08 0)
(3 4.17817e-06 0)
(3.00002 4.95369e-05 0)
(3.00005 -1.83502e-05 0)
(3.00089 0.000382379 0)
(3.00531 0.0167879 0)
(3.05425 -0.310984 0)
(3.09035 0.544491 0)
(2.30482 1.05649 0)
(1.22793 0.895792 0)
(1.17387 0.860803 0)
(1.1865 0.817302 0)
(1.20927 0.803541 0)
(1.24421 0.792209 0)
(3 1.33104e-17 0)
(3 -5.17273e-17 0)
(3 6.1491e-16 0)
(3 -9.89263e-16 0)
(3 5.02642e-14 0)
(3 4.34895e-13 0)
(3 3.8109e-12 0)
(3 2.60437e-11 0)
(3 8.17603e-11 0)
(3 1.70817e-09 0)
(3 1.66245e-08 0)
(3 1.32603e-07 0)
(3 1.10761e-06 0)
(3.00001 3.78148e-06 0)
(3.00024 6.63122e-05 0)
(2.99839 0.000603444 0)
(3.00889 0.00471678 0)
(2.91458 0.0371583 0)
(3.30668 0.322752 0)
(2.91946 0.978604 0)
(1.61914 0.982788 0)
(1.24729 0.900373 0)
(1.23392 0.83328 0)
(1.25004 0.820512 0)
(1.27746 0.806487 0)
(3 -8.0266e-17 0)
(3 7.43952e-16 0)
(3 -2.34311e-15 0)
(3 5.87743e-15 0)
(3 4.10667e-14 0)
(3 1.94032e-13 0)
(3 2.24982e-12 0)
(3 5.35957e-12 0)
(3 1.57185e-10 0)
(3 1.0256e-09 0)
(3 -8.91226e-10 0)
(3 1.28605e-07 0)
(3 3.55387e-08 0)
(3 5.12165e-06 0)
(3.00002 5.14941e-05 0)
(3.00008 7.5205e-05 0)
(3.00131 0.00115409 0)
(3.00591 0.0107044 0)
(3.07867 -0.243033 0)
(3.11621 0.673825 0)
(2.26499 1.0571 0)
(1.32935 0.918889 0)
(1.27832 0.875789 0)
(1.29513 0.834465 0)
(1.31464 0.819246 0)
(3 -9.7141e-17 0)
(3 2.34449e-16 0)
(3 -2.32967e-16 0)
(3 1.10852e-15 0)
(3 1.20609e-14 0)
(3 6.56186e-14 0)
(3 7.66233e-13 0)
(3 5.37482e-12 0)
(3 4.74287e-11 0)
(3 3.75847e-10 0)
(3 2.56125e-09 0)
(3 2.57043e-08 0)
(3 1.95518e-07 0)
(2.99999 1.55314e-06 0)
(3.00005 1.31718e-05 0)
(2.99997 8.41403e-05 0)
(2.99781 0.000855824 0)
(3.01791 0.00649737 0)
(2.93042 0.0515729 0)
(3.33919 0.413038 0)
(2.90794 1.0526 0)
(1.68015 0.997364 0)
(1.35924 0.937211 0)
(1.33623 0.864267 0)
(1.35018 0.848387 0)
(3 -9.84188e-17 0)
(3 5.50419e-17 0)
(3 -4.93104e-16 0)
(3 2.38133e-15 0)
(3 6.56863e-15 0)
(3 1.28315e-13 0)
(3 -4.6972e-15 0)
(3 5.70633e-12 0)
(3 2.4846e-11 0)
(3 3.65298e-10 0)
(3 4.63584e-09 0)
(3 6.59476e-10 0)
(3 1.5034e-07 0)
(3 2.03462e-07 0)
(3 7.34105e-06 0)
(3.00002 6.23976e-05 0)
(3.0001 3.08794e-05 0)
(3.00161 0.000564359 0)
(3.00661 0.0145992 0)
(3.10416 -0.268044 0)
(3.14612 0.773627 0)
(2.30563 1.0761 0)
(1.43982 0.947618 0)
(1.38162 0.909948 0)
(1.39184 0.862516 0)
(3 1.56235e-16 0)
(3 1.37157e-16 0)
(3 2.33813e-16 0)
(3 4.37667e-16 0)
(3 3.04693e-15 0)
(3 2.05473e-14 0)
(3 1.43948e-13 0)
(3 1.14122e-12 0)
(3 9.45336e-12 0)
(3 7.44392e-11 0)
(3 5.71466e-10 0)
(3 4.02924e-09 0)
(3 3.37355e-08 0)
(3 2.55541e-07 0)
(3 2.04403e-06 0)
(3.00004 1.59041e-05 0)
(3 0.000106584 0)
(2.99772 0.00100385 0)
(3.02108 0.00743694 0)
(2.9227 0.0581991 0)
(3.37551 0.445425 0)
(2.95585 1.08299 0)
(1.7875 1.02032 0)
(1.44961 0.974945 0)
(1.42229 0.8982 0)
(3 1.68242e-17 0)
(3 -8.77174e-17 0)
(3 9.4129e-17 0)
(3 -3.04265e-15 0)
(3 6.60592e-15 0)
(3 -3.1373e-15 0)
(3 9.5001e-14 0)
(3 1.52591e-12 0)
(3 -2.92691e-12 0)
(3 5.45577e-11 0)
(3 -6.63278e-10 0)
(3 2.68308e-09 0)
(3 -1.35189e-08 0)
(3 1.6131e-07 0)
(3 -2.9033e-07 0)
(3 7.41256e-06 0)
(3.00003 6.68545e-05 0)
(3.00007 3.61868e-05 0)
(3.00193 -0.00284958 0)
(3.00373 0.00925641 0)
(3.13296 -0.140953 0)
(3.23011 0.76753 0)
(2.45089 1.08379 0)
(1.54408 0.963708 0)
(1.47571 0.938136 0)
(3 -9.2016e-17 0)
(3 -2.53407e-16 0)
(3 -3.24179e-16 0)
(3 -3.52935e-16 0)
(3 -3.87673e-16 0)
(3 6.00887e-16 0)
(3 1.99784e-14 0)
(3 1.46793e-13 0)
(3 1.05489e-12 0)
(3 9.3478e-12 0)
(3 3.38017e-12 0)
(3 5.56775e-10 0)
(3 4.56873e-09 0)
(3 3.40645e-08 0)
(3 2.65491e-07 0)
(3 2.40411e-06 0)
(3.00002 -2.3098e-05 0)
(3.00005 0.000123421 0)
(2.99824 0.00104483 0)
(3.01575 0.0070252 0)
(2.9454 0.0582178 0)
(3.35471 0.408967 0)
(3.03538 1.06341 0)
(1.93349 1.04083 0)
(1.5435 0.999953 0)
(3 5.13189e-17 0)
(3 9.3808e-17 0)
(3 -9.38239e-17 0)
(3 -2.65586e-16 0)
(3 -4.13404e-16 0)
(3 7.04002e-16 0)
(3 3.06062e-15 0)
(3 9.11785e-14 0)
(3 4.21258e-13 0)
(3 4.03414e-12 0)
(3 -2.48721e-11 0)
(3 2.83166e-10 0)
(3 -3.30269e-10 0)
(3 8.74739e-09 0)
(3 4.72302e-08 0)
(3 5.60762e-07 0)
(2.99999 5.46748e-06 0)
(3.00007 2.92694e-05 0)
(2.99991 -7.72837e-05 0)
(3.00255 -0.00311569 0)
(3.00269 0.00934901 0)
(3.13504 -0.00780738 0)
(3.32094 0.670697 0)
(2.61814 1.05796 0)
(1.68922 0.964597 0)
(3 -1.97524e-33 0)
(3 -5.13189e-17 0)
(3 1.53957e-16 0)
(3 3.12678e-16 0)
(3 4.26999e-16 0)
(3 1.80865e-16 0)
(3 4.31615e-15 0)
(3 4.50373e-14 0)
(3 2.71854e-13 0)
(3 3.65917e-13 0)
(3 9.44773e-12 0)
(3 7.15186e-11 0)
(3 3.69881e-10 0)
(3 5.05639e-09 0)
(3 4.62921e-08 0)
(3 3.16564e-07 0)
(3 2.98698e-07 0)
(2.99999 1.26444e-05 0)
(3.00005 7.83101e-05 0)
(2.99856 0.000839053 0)
(3.01188 0.00576496 0)
(2.97849 0.0501662 0)
(3.31932 0.373818 0)
(3.12266 0.986013 0)
(2.15211 1.05524 0)
(3 -1.02638e-16 0)
(3 -2.66352e-16 0)
(3 -2.35284e-16 0)
(3 -3.24208e-16 0)
(3 -2.85598e-16 0)
(3 -3.08333e-16 0)
(3 6.93467e-16 0)
(3 4.25209e-15 0)
(3 1.4761e-14 0)
(3 3.37086e-13 0)
(3 2.02067e-12 0)
(3 -2.62116e-12 0)
(3 1.15519e-10 0)
(3 -7.40659e-11 0)
(3 1.11029e-08 0)
(3 -4.13624e-09 0)
(3 3.56734e-07 0)
(3 2.78656e-06 0)
(3.00004 2.59028e-05 0)
(2.99998 5.84856e-05 0)
(3.00174 -0.00633295 0)
(3.00269 0.011044 0)
(3.11139 0.0675588 0)
(3.45508 0.602154 0)
(2.8712 0.974133 0)
(3 -2.56595e-16 0)
(3 5.13189e-17 0)
(3 -3.59232e-16 0)
(3 -4.53875e-16 0)
(3 -7.12009e-16 0)
(3 -9.81569e-16 0)
(3 -7.83578e-16 0)
(3 6.24755e-16 0)
(3 1.70739e-14 0)
(3 1.17064e-13 0)
(3 3.87054e-13 0)
(3 7.1671e-12 0)
(3 5.11083e-11 0)
(3 1.45532e-11 0)
(3 1.69864e-09 0)
(3 1.82639e-08 0)
(3 1.48149e-07 0)
(3 1.06571e-06 0)
(2.99999 1.08651e-05 0)
(3.0001 7.41643e-05 0)
(2.99926 0.000718842 0)
(3.0074 0.00510934 0)
(2.98928 0.0437442 0)
(3.3282 -0.275074 0)
(3.24736 0.972907 0)
(3 -6.04381e-17 0)
(3 1.53957e-16 0)
(3 2.56595e-16 0)
(3 2.56595e-16 0)
(3 3.4744e-16 0)
(3 2.04585e-16 0)
(3 2.75215e-16 0)
(3 3.50029e-16 0)
(3 4.01812e-15 0)
(3 2.26149e-14 0)
(3 1.75922e-13 0)
(3 1.54596e-12 0)
(3 3.66008e-12 0)
(3 5.00953e-11 0)
(3 3.79282e-10 0)
(3 1.92795e-09 0)
(3 6.85246e-09 0)
(3 4.19456e-08 0)
(3 -3.02483e-06 0)
(3.00001 5.88495e-06 0)
(3.00011 -0.000288575 0)
(3 0.000843843 0)
(3.01068 0.00467614 0)
(2.93189 0.0697457 0)
(3.48673 0.503231 0)
(3 5.13189e-17 0)
(3 3.84822e-17 0)
(3 2.05276e-16 0)
(3 3.07652e-16 0)
(3 5.76952e-16 0)
(3 3.97952e-16 0)
(3 1.39564e-15 0)
(3 1.17539e-15 0)
(3 -1.30499e-15 0)
(3 1.76784e-14 0)
(3 -1.21389e-13 0)
(3 8.21134e-13 0)
(3 2.89491e-12 0)
(3 2.36979e-11 0)
(3 3.06116e-10 0)
(3 9.91275e-10 0)
(3 1.98282e-08 0)
(3 5.75002e-08 0)
(3 4.00889e-07 0)
(3 5.68479e-06 0)
(2.99993 4.82758e-05 0)
(3.00033 -0.000123674 0)
(3.00147 0.00298741 0)
(2.99782 0.00871059 0)
(3.16628 0.0455785 0)
(3 1.53957e-16 0)
(3 1.53957e-16 0)
(3 6.19699e-17 0)
(3 1.48129e-16 0)
(3 1.70829e-16 0)
(3 3.08003e-16 0)
(3 4.12896e-16 0)
(3 3.72747e-16 0)
(3 2.51289e-16 0)
(3 3.41214e-15 0)
(3 2.39174e-14 0)
(3 1.50643e-13 0)
(3 1.48328e-12 0)
(3 -1.73222e-11 0)
(3 1.27845e-10 0)
(3 -2.42542e-10 0)
(3 3.03308e-09 0)
(3 1.31584e-08 0)
(3 9.39563e-08 0)
(3 9.98134e-07 0)
(2.99999 -5.33426e-06 0)
(3.00015 8.14492e-05 0)
(2.99986 0.000676536 0)
(3.00726 0.00495674 0)
(2.98453 0.0496902 0)
(3 -1.02638e-16 0)
(3 -1.01307e-17 0)
(3 5.417e-17 0)
(3 2.48147e-16 0)
(3 5.67046e-17 0)
(3 -7.63423e-17 0)
(3 -1.95329e-16 0)
(3 -2.82828e-16 0)
(3 -4.24307e-16 0)
(3 1.34662e-15 0)
(3 5.11775e-15 0)
(3 6.44467e-14 0)
(3 1.55666e-13 0)
(3 1.13232e-12 0)
(3 2.26816e-11 0)
(3 1.60536e-10 0)
(3 1.48368e-09 0)
(3 8.58604e-09 0)
(3 -1.2308e-07 0)
(3 6.4488e-07 0)
(3 1.68885e-06 0)
(3.00002 6.81441e-06 0)
(3.00007 0.000138385 0)
(3.00092 0.000633053 0)
(3.00351 0.00658546 0)
(3 5.13189e-17 0)
(3 5.44807e-17 0)
(3 4.81571e-17 0)
(3 1.02638e-16 0)
(3 1.02638e-16 0)
(3 1.02638e-16 0)
(3 5.10766e-17 0)
(3 2.49731e-16 0)
(3 -9.16806e-16 0)
(3 5.70329e-19 0)
(3 2.1545e-16 0)
(3 1.70731e-14 0)
(3 1.1716e-13 0)
(3 9.54869e-13 0)
(3 9.99676e-12 0)
(3 -2.11404e-11 0)
(3 4.51993e-10 0)
(3 9.14457e-10 0)
(3 1.31281e-08 0)
(3 1.4222e-07 0)
(3 7.9123e-07 0)
(3.00001 2.65037e-06 0)
(3.00002 6.17915e-05 0)
(3.00011 0.000258794 0)
(3.00135 4.19355e-05 0)
(3 1.12736e-16 0)
(3 3.06918e-16 0)
(3 3.45445e-16 0)
(3 5.13189e-17 0)
(3 5.13189e-17 0)
(3 -2.56595e-16 0)
(3 -5.13344e-16 0)
(3 -7.19426e-16 0)
(3 -9.88568e-16 0)
(3 -1.15027e-15 0)
(3 -6.83886e-16 0)
(3 4.62136e-15 0)
(3 1.90721e-14 0)
(3 -2.85974e-14 0)
(3 2.48192e-12 0)
(3 1.42163e-11 0)
(3 1.34768e-10 0)
(3 8.9055e-10 0)
(3 -4.14262e-09 0)
(3 8.08802e-08 0)
(3 -3.1513e-07 0)
(3 2.21039e-06 0)
(3.00002 1.36343e-05 0)
(3 0.000103695 0)
(3.00003 0.000973117 0)
(3 -5.13189e-17 0)
(3 -2.56595e-16 0)
(3 -2.56595e-16 0)
(3 -3.07913e-16 0)
(3 -3.59232e-16 0)
(3 -1.38033e-16 0)
(3 -5.63094e-16 0)
(3 -1.72978e-16 0)
(3 1.3284e-16 0)
(3 4.74482e-16 0)
(3 -5.56574e-17 0)
(3 2.82093e-15 0)
(3 8.31001e-15 0)
(3 -5.70532e-14 0)
(3 6.95459e-13 0)
(3 8.37727e-13 0)
(3 5.60714e-11 0)
(3 -3.31717e-10 0)
(3 1.5514e-09 0)
(3 6.97533e-10 0)
(3 5.6176e-08 0)
(3 4.4337e-07 0)
(3.00001 4.38175e-06 0)
(2.99999 2.13088e-05 0)
(3.00038 0.000141309 0)
(3 2.0663e-17 0)
(3 -1.25753e-16 0)
(3 1.02483e-16 0)
(3 3.07642e-16 0)
(3 4.63562e-16 0)
(3 4.5242e-16 0)
(3 5.02755e-16 0)
(3 5.27914e-16 0)
(3 4.63949e-16 0)
(3 4.47717e-16 0)
(3 5.06855e-16 0)
(3 1.08419e-15 0)
(3 3.70575e-15 0)
(3 2.55731e-14 0)
(3 -5.13794e-14 0)
(3 1.31652e-12 0)
(3 8.12093e-12 0)
(3 6.04525e-11 0)
(3 3.17485e-10 0)
(3 1.45489e-09 0)
(3 1.14483e-08 0)
(3 -2.68967e-08 0)
(3 1.12615e-06 0)
(2.99999 6.50394e-06 0)
(3.00009 6.36403e-05 0)
(3 1.53957e-16 0)
(3 2.90643e-16 0)
(3 1.82139e-16 0)
(3 1.02638e-16 0)
(3 2.05276e-16 0)
(3 3.54849e-16 0)
(3 1.50747e-16 0)
(3 1.13792e-18 0)
(3 -1.0342e-16 0)
(3 -1.95338e-16 0)
(3 -3.74496e-17 0)
(3 -1.3387e-16 0)
(3 -1.23281e-16 0)
(3 2.83086e-15 0)
(3 4.09736e-14 0)
(3 2.69382e-13 0)
(3 2.94986e-12 0)
(3 -5.64157e-12 0)
(3 1.30218e-10 0)
(3 -9.5187e-11 0)
(3 5.95016e-09 0)
(3 6.32882e-08 0)
(3 4.04196e-07 0)
(3 7.1247e-07 0)
(3.00002 1.4688e-05 0)
(3 -1.02638e-16 0)
(3 -3.59232e-16 0)
(3 -3.77615e-16 0)
(3 -7.69784e-16 0)
(3 -7.69784e-16 0)
(3 -7.18465e-16 0)
(3 -5.92359e-16 0)
(3 -6.67145e-16 0)
(3 -7.11366e-16 0)
(3 -4.13572e-16 0)
(3 -5.40209e-16 0)
(3 -6.55891e-16 0)
(3 -4.70269e-16 0)
(3 -1.02422e-15 0)
(3 8.51602e-15 0)
(3 4.02632e-14 0)
(3 7.83904e-13 0)
(3 5.18997e-12 0)
(3 2.29561e-11 0)
(3 2.79604e-10 0)
(3 1.65638e-09 0)
(3 8.20273e-09 0)
(3 1.27917e-07 0)
(3 3.98902e-07 0)
(3 1.76989e-06 0)
(3 -1.02638e-16 0)
(3 -1.53957e-16 0)
(3 -1.53957e-16 0)
(3 -5.13189e-17 0)
(3 -5.13189e-17 0)
(3 -5.13189e-17 0)
(3 -5.13189e-17 0)
(3 -1.02638e-16 0)
(3 -5.13189e-17 0)
(3 3.04272e-23 0)
(3 -2.05275e-16 0)
(3 -2.05812e-16 0)
(3 -2.13618e-16 0)
(3 3.42766e-16 0)
(3 -2.26915e-15 0)
(3 1.86449e-14 0)
(3 1.73995e-13 0)
(3 3.8053e-13 0)
(3 7.80813e-12 0)
(3 2.3459e-11 0)
(3 3.89032e-10 0)
(3 -1.3163e-09 0)
(3 1.83923e-08 0)
(3 7.22515e-08 0)
(3 6.1545e-07 0)
(3 5.13189e-17 0)
(3 -5.13189e-17 0)
(3 5.13189e-17 0)
(3 9.19145e-18 0)
(3 9.34464e-17 0)
(3 -1.02638e-16 0)
(3 -1.02638e-16 0)
(3 -1.02638e-16 0)
(3 -1.32416e-16 0)
(3 -3.03933e-16 0)
(3 -4.09865e-16 0)
(3 -4.58264e-16 0)
(3 -5.77977e-16 0)
(3 -1.22979e-15 0)
(3 -6.1669e-16 0)
(3 5.67763e-15 0)
(3 5.50071e-14 0)
(3 2.19565e-13 0)
(3 1.76956e-12 0)
(3 4.2374e-12 0)
(3 6.37813e-11 0)
(3 5.04416e-10 0)
(3 3.83544e-09 0)
(3 5.36168e-09 0)
(3 -1.67132e-07 0)
(3 5.13189e-17 0)
(3 1.55253e-16 0)
(3 5.00227e-17 0)
(3 6.51061e-17 0)
(3 3.75317e-17 0)
(3 -2.56595e-16 0)
(3 -5.13189e-16 0)
(3 -6.67146e-16 0)
(3 -8.72421e-16 0)
(3 -8.72421e-16 0)
(3 -7.79197e-16 0)
(3 -8.11787e-16 0)
(3 -9.24647e-16 0)
(3 -8.95187e-16 0)
(3 -8.2486e-16 0)
(3 -6.66235e-17 0)
(3 8.84061e-15 0)
(3 -1.32739e-14 0)
(3 4.76543e-13 0)
(3 -4.39356e-13 0)
(3 1.01272e-11 0)
(3 -3.95813e-11 0)
(3 -2.89142e-10 0)
(3 6.04601e-09 0)
(3 -2.00215e-08 0)
(3 5.13189e-17 0)
(3 2.05276e-16 0)
(3 3.07913e-16 0)
(3 3.07913e-16 0)
(3 4.10551e-16 0)
(3 4.6187e-16 0)
(3 4.6187e-16 0)
(3 4.55721e-16 0)
(3 6.00288e-16 0)
(3 2.20815e-16 0)
(3 1.53957e-16 0)
(3 -3.59232e-16 0)
(3 -6.61436e-16 0)
(3 -8.95363e-16 0)
(3 -8.90401e-16 0)
(3 -8.48542e-16 0)
(3 -2.71035e-15 0)
(3 -2.46967e-14 0)
(3 9.46743e-14 0)
(3 -5.54637e-14 0)
(3 3.14939e-12 0)
(3 -6.84508e-11 0)
(3 -2.8213e-11 0)
(3 3.71972e-09 0)
(3 -2.73328e-08 0)
(3 -5.13189e-17 0)
(3 -1.02638e-16 0)
(3 -3.07913e-16 0)
(3 -3.74676e-16 0)
(3 -4.49955e-16 0)
(3 -5.28839e-16 0)
(3 -2.92263e-16 0)
(3 -1.09732e-16 0)
(3 -5.13189e-17 0)
(3 -1.53957e-16 0)
(3 -2.05276e-16 0)
(3 -3.59232e-16 0)
(3 -3.59232e-16 0)
(3 -4.66668e-16 0)
(3 -6.00876e-16 0)
(3 -5.47729e-16 0)
(3 1.19335e-15 0)
(3 1.01442e-14 0)
(3 2.17137e-14 0)
(3 4.66462e-13 0)
(3 1.11913e-12 0)
(3 2.39184e-11 0)
(3 1.35663e-10 0)
(3 9.50731e-10 0)
(3 -1.22788e-09 0)
(3 -1.02638e-16 0)
(3 -2.56595e-16 0)
(3 -5.64508e-16 0)
(3 -7.18465e-16 0)
(3 -8.72421e-16 0)
(3 -9.75059e-16 0)
(3 -9.11147e-16 0)
(3 -1.15294e-15 0)
(3 -1.10509e-15 0)
(3 -9.2374e-16 0)
(3 -6.15827e-16 0)
(3 -2.56595e-16 0)
(3 -5.10962e-17 0)
(3 1.60393e-16 0)
(3 3.09609e-16 0)
(3 5.72779e-16 0)
(3 1.06164e-15 0)
(3 1.98292e-15 0)
(3 1.21116e-14 0)
(3 1.99637e-17 0)
(3 -8.71366e-14 0)
(3 -1.97432e-12 0)
(3 -1.73038e-11 0)
(3 9.41805e-11 0)
(3 -2.2472e-09 0)
(1.182 1.06468 0)
(0.565446 0.639813 0)
(-0.585473 0.0432666 0)
(-0.433043 -0.162335 0)
(-0.592137 -0.165775 0)
(-0.465754 -0.0898402 0)
(-0.685264 0.0803432 0)
(-1.00658 0.138777 0)
(-1.19126 0.139758 0)
(-1.27204 0.0981392 0)
(-1.29051 0.061697 0)
(-1.28007 0.0283521 0)
(-1.27614 0.0271694 0)
(-1.28559 0.0179719 0)
(-1.36966 -0.00301731 0)
(-1.4404 -0.0237594 0)
(-1.48627 -0.0227611 0)
(-1.50862 -0.0198179 0)
(-1.51598 -0.0175847 0)
(-1.50455 -0.0118965 0)
(-1.50043 -0.0105733 0)
(-1.49772 -0.0099463 0)
(-1.49701 -0.00878002 0)
(-1.50253 -0.00661603 0)
(-1.5075 -0.00620265 0)
(-1.5154 -0.00260174 0)
(-1.5215 -0.000308707 0)
(-1.52575 0.00391079 0)
(-1.52821 0.00424131 0)
(-1.52923 0.00415806 0)
(-1.52918 0.0034602 0)
(-1.50878 0.00329978 0)
(-1.48919 0.00565619 0)
(-1.44536 0.00727358 0)
(-1.3843 0.00406535 0)
(-1.31359 -0.00320487 0)
(-1.23354 -0.0173374 0)
(-1.14113 -0.0307827 0)
(-1.04396 -0.0486576 0)
(-0.94967 -0.0549806 0)
(-0.853925 -0.0493712 0)
(-0.75543 -0.0399153 0)
(-0.658949 -0.0265268 0)
(-0.561574 -0.0101552 0)
(-0.462577 -0.000464259 0)
(-0.377621 0.0123006 0)
(-0.314046 0.0084357 0)
(-0.212061 -0.0133036 0)
(-0.119778 -0.0163252 0)
(-0.0436769 -0.0300998 0)
(0.0620638 -0.0323227 0)
(0.13425 -0.0249865 0)
(0.210728 -0.028245 0)
(0.281106 -0.0278781 0)
(0.347542 -0.0278306 0)
(0.409571 -0.0278908 0)
(0.467264 -0.0272244 0)
(0.521951 -0.0261342 0)
(0.573445 -0.024218 0)
(0.621476 -0.0224633 0)
(0.666182 -0.0209966 0)
(0.708086 -0.0196701 0)
(0.747901 -0.0183553 0)
(0.785127 -0.0168733 0)
(0.8202 -0.0155079 0)
(0.853093 -0.0143744 0)
(0.884609 -0.0133521 0)
(0.914528 -0.0123687 0)
(0.94308 -0.01157 0)
(0.970298 -0.0107234 0)
(0.996262 -0.0100711 0)
(1.02125 -0.00945469 0)
(1.04545 -0.00895126 0)
(1.06901 -0.00845954 0)
(1.09204 -0.00808527 0)
(1.11462 -0.00770534 0)
(1.13676 -0.00747573 0)
(1.15855 -0.00713734 0)
(1.17961 -0.00676838 0)
(1.20029 -0.00629724 0)
(1.21971 -0.0059466 0)
(1.23882 -0.00559423 0)
(1.25698 -0.00533618 0)
(1.2749 -0.0049885 0)
(1.29196 -0.00468898 0)
(1.30882 -0.00426396 0)
(1.32478 -0.00389561 0)
(1.34057 -0.00342836 0)
(1.35539 -0.00309051 0)
(1.3701 -0.00266827 0)
(1.38375 -0.00247691 0)
(1.39732 -0.00218837 0)
(1.41008 -0.00215059 0)
(1.42279 -0.00194971 0)
(1.43477 -0.00205926 0)
(1.44667 -0.00184123 0)
(1.45867 -0.00208564 0)
(1.4706 -0.00168614 0)
(1.48318 -0.00176976 0)
(1.49748 -0.00033006 0)
(1.22483 0.975666 0)
(1.1773 0.760355 0)
(0.741034 0.585474 0)
(0.654414 0.291629 0)
(0.149809 0.175281 0)
(-0.138976 0.133172 0)
(-0.342851 0.22974 0)
(-0.774028 0.14712 0)
(-0.904461 0.039866 0)
(-0.953913 -0.00775895 0)
(-0.888628 -0.0495922 0)
(-0.854335 -0.0408289 0)
(-0.844867 -0.0335459 0)
(-0.890495 -0.0179884 0)
(-0.981785 -0.0136702 0)
(-1.059 0.0339369 0)
(-1.1099 0.0585843 0)
(-1.12933 0.0502913 0)
(-1.13198 0.0353893 0)
(-1.11914 0.0143482 0)
(-1.11325 0.0072801 0)
(-1.11019 0.00647797 0)
(-1.10969 0.00794752 0)
(-1.11477 0.00720452 0)
(-1.11889 0.00600689 0)
(-1.13014 0.00190634 0)
(-1.13981 0.00168929 0)
(-1.14999 -0.00168609 0)
(-1.15636 -0.00264153 0)
(-1.1589 -0.00373072 0)
(-1.15765 -0.00390501 0)
(-1.13206 -0.00568699 0)
(-1.10723 -0.00758993 0)
(-1.06353 -0.0113858 0)
(-0.996141 -0.0173894 0)
(-0.9198 -0.0281737 0)
(-0.831142 -0.0262315 0)
(-0.726195 -0.0193485 0)
(-0.601955 -0.048566 0)
(-0.504381 -0.0305584 0)
(-0.401758 -0.0455636 0)
(-0.256284 -0.0775381 0)
(-0.140524 -0.0983203 0)
(-0.00603707 -0.118331 0)
(0.147709 -0.134803 0)
(0.285179 -0.12796 0)
(0.425549 -0.135849 0)
(0.54734 -0.147464 0)
(0.626686 -0.125572 0)
(0.701298 -0.121086 0)
(0.764593 -0.11647 0)
(0.817165 -0.100988 0)
(0.8697 -0.0942472 0)
(0.914364 -0.0880384 0)
(0.95198 -0.0795133 0)
(0.988117 -0.0724564 0)
(1.02032 -0.0647501 0)
(1.0522 -0.0601008 0)
(1.08142 -0.0551852 0)
(1.10942 -0.0502934 0)
(1.13568 -0.0453497 0)
(1.16105 -0.0412155 0)
(1.18598 -0.0376647 0)
(1.20916 -0.0342942 0)
(1.23163 -0.0312033 0)
(1.25342 -0.0285089 0)
(1.27412 -0.0263721 0)
(1.29391 -0.0242656 0)
(1.31282 -0.0221663 0)
(1.33135 -0.0202637 0)
(1.34913 -0.0187525 0)
(1.36627 -0.0174084 0)
(1.38291 -0.0163787 0)
(1.39923 -0.0154228 0)
(1.41535 -0.0145716 0)
(1.43129 -0.0137047 0)
(1.4471 -0.0129049 0)
(1.46275 -0.0119582 0)
(1.47812 -0.0111022 0)
(1.49326 -0.0101973 0)
(1.50751 -0.00938474 0)
(1.52138 -0.00853498 0)
(1.53469 -0.00775159 0)
(1.54786 -0.00688677 0)
(1.56059 -0.00615483 0)
(1.57324 -0.00538539 0)