/*--------------------------------*- C++ -*----------------------------------*\
| =========                 |                                                 |
| \\      /  F ield         | OpenFOAM: The Open Source CFD Toolbox           |
|  \\    /   O peration     | Version:  v2106                                 |
|   \\  /    A nd           | Website:  www.openfoam.com                      |
|    \\/     M anipulation  |                                                 |
\*---------------------------------------------------------------------------*/
FoamFile
{
    version     2.0;
    format      ascii;
    arch        "LSB;label=32;scalar=64";
    class       volScalarField;
    location    "9";
    object      p;
}
// * * * * * * * * * * * * * * * * * * * * * * * * * * * * * * * * * * * * * //

dimensions      [1 -1 -2 0 0 0 0];

internalField   nonuniform List<scalar> 
5250
(
1
1
1
1
1
1
1
1
1.00001
1.00007
1.00066
1.00585
1.05123
1.41341
3.04933
8.78772
13.2472
10.8494
11.4979
11.7055
11.8003
11.9542
12.0578
12.1398
12.1848
1
1
1
1
1
1
1
1
1.00001
1.00007
1.00063
1.00569
1.04955
1.40348
3.01091
8.66587
13.2835
10.8227
11.4859
11.6905
11.7874
11.9415
12.0451
12.125
12.1708
1
1
1
1
1
1
1
1
1.00001
1.00007
1.00059
1.00534
1.04587
1.38118
2.92285
8.36879
13.3415
10.7724
11.45
11.659
11.7441
11.8931
11.9916
12.0689
12.107
1
1
1
1
1
1
1
1
1.00001
1.00006
1.00053
1.00495
1.04091
1.35002
2.7972
7.95995
13.3932
10.7119
11.3805
11.5924
11.6741
11.8163
11.9123
11.9744
12.0148
1
1
1
1
1
1
1
1
1
1.00006
1.00045
1.00448
1.03496
1.31063
2.63297
7.45492
13.3603
10.6597
11.2862
11.5136
11.578
11.7103
11.7907
11.861
11.8939
1
1
1
1
1
1
1
1
1
1.00004
1.00036
1.00335
1.02832
1.26749
2.44934
6.88441
13.2676
10.6356
11.1863
11.4123
11.474
11.5876
11.6696
11.6788
11.7109
1
1
1
1
1
1
1
1
1
1.00003
1.00027
1.00255
1.02237
1.22381
2.25671
6.24444
12.9626
10.6494
11.0415
11.2849
11.33
11.4038
11.4378
11.4745
11.4724
1
1
1
1
1
1
1
1
1
1.00003
1.00019
1.00244
1.01842
1.18844
2.10004
5.63135
12.3549
10.6387
10.8779
11.0897
11.1449
11.2184
11.2074
11.1838
11.0919
1
1
1
1
1
1
1
1
1
1.00003
1.00015
1.00196
1.01431
1.15115
1.92648
4.99951
11.5586
10.6086
10.7131
10.8769
10.9541
10.8785
10.8196
10.715
10.5363
1
1
1
1
1
1
1
1
1
1.00003
1.0001
1.00178
1.01093
1.12823
1.76837
4.40833
10.6116
10.6071
10.5642
10.5557
10.6599
10.6085
10.362
10.3761
9.47779
1
1
1
1
1
1
1
1
1
1.00001
1.00012
1.00112
1.00928
1.08783
1.60376
3.80581
9.507
10.6463
10.376
10.2669
10.2823
10.2032
9.71709
9.33529
6.89313
1
1
1
1
1
1
1
1
1
1
1.00009
1.00046
1.00649
1.04856
1.45194
3.2428
8.35042
10.7228
10.0232
9.9652
9.8969
9.79373
9.10157
8.45898
6.51215
1
1
1
1
1
1
1
1
1
1.00001
1.00005
1.00045
1.00422
1.03423
1.30614
2.59885
7.0344
10.7438
9.72527
9.71835
9.59682
9.40905
8.77677
7.99012
6.66872
1
1
1
1
1
1
1
1
1
1
1.00003
1.00024
1.00254
1.02074
1.2086
2.19044
5.80329
10.4325
9.62611
9.4964
9.35334
9.09587
8.52214
7.80733
6.66452
1
1
1
1
1
1
1
1
1
1
1.00003
1.00012
1.00207
1.01273
1.14781
1.84562
4.72121
9.39174
9.62435
9.38043
9.10785
8.79878
8.25564
7.62683
6.67622
1
1
1
1
1
1
1
1
1
1
1.00001
1.00012
1.00108
1.00898
1.08268
1.56353
3.69935
8.0232
9.55236
9.14108
8.82598
8.50893
8.06686
7.47642
6.64332
1
1
1
1
1
1
1
1
1
1
1
1.00008
1.00022
1.00501
1.02855
1.33521
2.77732
6.60126
9.4269
8.90307
8.61857
8.33267
7.91143
7.37852
6.6301
1
1
1
1
1
1
1
1
1
1
1
1.00004
1.00021
1.00292
1.01974
1.20457
2.12858
5.20001
8.90641
8.86516
8.54913
8.22657
7.80986
7.28795
6.6333
1
1
1
1
1
1
1
1
1
1
1
1.00002
1.00016
1.00145
1.0119
1.10695
1.70343
4.03912
7.81448
8.86175
8.47331
8.07167
7.65847
7.18946
6.60137
1
1
1
1
1
1
1
1
1
1
1
1
1.0001
1.00033
1.00673
1.03916
1.43905
2.96594
6.33452
8.64041
8.24703
7.89941
7.53244
7.1127
6.59156
1
1
1
1
1
1
1
1
1
1
1
1
1.00004
1.00032
1.00275
1.0228
1.18556
2.0896
4.80516
7.94967
8.1477
7.84146
7.47523
7.07002
6.59141
1
1
1
1
1
1
1
1
1
1
1
1
1.00004
1.00026
1.00015
1.01331
1.04465
1.70295
3.59949
6.76659
8.12705
7.7987
7.43846
7.04871
6.60028
1
1
1
1
1
1
1
1
1
1
1
1
1.00001
1.00007
1.00051
1.00442
1.03475
1.27355
2.4691
5.28317
7.72877
7.66494
7.38589
7.02424
6.60247
1
1
1
1
1
1
1
1
1
1
1
1
1
1.00006
1.00033
1.00013
1.01646
1.04578
1.8277
3.92581
6.78426
7.71343
7.39741
7.04047
6.63363
1
1
1
1
1
1
1
1
1
1
1
1
1
1.00001
1.00009
1.00069
1.00597
1.04485
1.35403
2.74337
5.42479
7.48068
7.31367
7.014
6.64416
1
1
1
1
1
1
1
1
1
1
1
1
1
1
1.00008
1.00041
1.00038
1.01792
1.06116
1.91549
4.03406
6.60694
7.32028
7.01856
6.6718
1
1
1
1
1
1
1
1
1
1
1
1
1
1
1.00001
1.00011
1.00079
1.00678
1.04923
1.38752
2.80149
5.27902
7.07274
6.92856
6.65555
1
1
1
1
1
1
1
1
1
1
1
1
1
1
1
1.00007
1.00037
1.00006
1.01869
1.05327
1.88462
3.90441
6.25359
6.95562
6.67247
1
1
1
1
1
1
1
1
1
1
1
1
1
1
1
1.00001
1.00011
1.00076
1.0067
1.04536
1.37995
2.70835
4.99582
6.70093
6.64001
1
1
1
1
1
1
1
1
1
1
1
1
1
1
1
1
1.00002
1.00014
0.99919
1.01539
1.06206
1.81863
3.66634
5.84391
6.67145
1
1
1
1
1
1
1
1
1
1
1
1
1
1
1
1
1.00001
1.00009
1.00056
1.00563
1.03785
1.32817
2.49325
4.58491
6.29723
1
1
1
1
1
1
1
1
1
1
1
1
1
1
1
1
1
0.999992
0.999972
0.998937
1.01103
1.0635
1.69966
3.25206
5.36345
1
1
1
1
1
1
1
1
1
1
1
1
1
1
1
1
1
1.00001
1.00007
1.00054
1.00475
1.03313
1.2757
2.41271
4.20127
1
1
1
1
1
1
1
1
1
1
1
1
1
1
1
1
1
1
1.00001
1.0001
1.00049
1.00731
1.05622
1.46925
2.73705
1
1
1
1
1
1
1
1
1
1
1
1
1
1
1
1
1
1
1
1.00006
1.00032
1.00353
1.02217
0.995434
1.71348
1
1
1
1
1
1
1
1
1
1
1
1
1
1
1
1
1
1
1
1.00001
1.0001
1.00054
1.00601
1.03386
1.30723
1
1
1
1
1
1
1
1
1
1
1
1
1
1
1
1
1
1
1
1
1.00003
1.00022
1.00124
1.00832
1.04035
1
1
1
1
1
1
1
1
1
1
1
1
1
1
1
1
1
1
1
1
1.00001
1.00003
1.00043
1.00345
1.01961
1
1
1
1
1
1
1
1
1
1
1
1
1
1
1
1
1
1
1
1
1
1.00001
0.999988
1.00071
1.00519
1
1
1
1
1
1
1
1
1
1
1
1
1
1
1
1
1
1
1
1
1
1
1.00002
1.00014
1.00127
1
1
1
1
1
1
1
1
1
1
1
1
1
1
1
1
1
1
1
1
1
1
1
1.00006
1.00031
1
1
1
1
1
1
1
1
1
1
1
1
1
1
1
1
1
1
1
1
1
1
1
1.00001
1.0001
1
1
1
1
1
1
1
1
1
1
1
1
1
1
1
1
1
1
1
1
1
1
0.999999
1
1.00003
1
1
1
1
1
1
1
1
1
1
1
1
1
1
1
1
1
1
1
1
1
1
1
1
1.00001
1
1
1
1
1
1
1
1
1
1
1
1
1
1
1
1
1
1
1
1
1
1
1
1
1
1
1
1
1
1
1
1
1
1
1
1
1
1
1
1
1
1
1
1
1
1
1
1
1
1
1
1
1
1
1
1
1
1
1
1
1
1
1
1
1
1
1
1
1
1
1
1
1
1
1
1
1
1
1
1
1
1
1
1
1
1
1
1
1
1
1
1
1
1
1
1
1
1
1
1
1
1
1
1
1
1
1
1
1
1
1
1
1
1
1
1
1
1
1
1
1
1
1
1
1
1
1
1
1
1
1
1
1
1
1
1
1
1
1
1
1
1
1
1
1
1
1
1
1
1
2.71399
3.05646
3.83074
3.27455
3.51157
3.51005
3.31643
2.90167
2.62651
2.53346
2.53137
2.53939
2.53649
2.50209
2.39812
2.26531
2.18536
2.15863
2.1557
2.15848
2.15989
2.15471
2.14239
2.12657
2.11115
2.09773
2.09208
2.08974
2.09731
2.10472
2.13217
2.17807
2.24734
2.35478
2.47984
2.60081
2.75176
2.92005
3.08059
3.25826
3.45751
3.67341
3.86059
4.07513
4.24104
4.36775
4.49884
4.62134
4.70324
4.79018
4.85054
4.8793
4.90256
4.91128
4.91109
4.90336
4.88583
4.85922
4.82764
4.79229
4.75387
4.71177
4.66677
4.61951
4.57047
4.52035
4.47008
4.42038
4.3715
4.32329
4.27592
4.22897
4.18257
4.13626
4.09013
4.04465
4.00023
3.95693
3.91487
3.87373
3.83358
3.7941
3.75548
3.71726
3.6797
3.64231
3.60533
3.56839
3.53171
3.4949
3.45828
3.42138
3.38472
3.34746
3.31046
3.27219
3.23386
3.1926
3.15171
3.12855
4.10445
3.96293
3.53575
3.2796
3.64666
3.64284
3.51286
2.94379
2.51973
2.42038
2.46687
2.5311
2.51849
2.45476
2.34772
2.25036
2.1908
2.16349
2.16296
2.16344
2.16394
2.15948
2.14908
2.13328
2.12226
2.10121
2.09245
2.08497
2.09664
2.10683
2.13715
2.18602
2.24117
2.33491
2.45386
2.56242
2.71758
2.90109
3.08292
3.2781
3.46473
3.68431
3.85906
4.05635
4.21387
4.32929
4.47157
4.59807
4.68779
4.7771
4.8377
4.86982
4.89448
4.90558
4.9036
4.8952
4.8784
4.85226
4.82136
4.78652
4.74802
4.70593
4.66101
4.6145
4.56608
4.51602
4.46594
4.41657
4.36811
4.32046
4.2735
4.22687
4.18058
4.13421
4.08791
4.04236
3.99799
3.95487
3.91304
3.87207
3.83206
3.79272
3.75423
3.71614
3.67869
3.64138
3.60448
3.56758
3.53091
3.49415
3.4575
3.4207
3.384
3.34699
3.30989
3.27206
3.23328
3.1916
3.14819
3.12368
4.96085
4.31369
3.91838
3.57211
3.5832
3.52094
3.19225
2.6691
2.50167
2.49765
2.53653
2.56164
2.54784
2.51739
2.45455
2.30525
2.16456
2.12932
2.13305
2.15321
2.15721
2.15247
2.13874
2.12048
2.10616
2.08912
2.0924
2.08427
2.09465
2.1016
2.12522
2.16998
2.22976
2.33574
2.47509
2.59615
2.72003
2.90717
3.04
3.20405
3.39931
3.62336
3.81856
4.03261
4.20121
4.32479
4.44061
4.55653
4.65484
4.73772
4.80324
4.83859
4.86198
4.87414
4.87298
4.86832
4.85634
4.83103
4.80189
4.76864
4.73265
4.69304
4.64927
4.60283
4.55487
4.50595
4.45714
4.40899
4.36179
4.31512
4.26898
4.22294
4.17704
4.13083
4.0844
4.03859
3.99422
3.95149
3.91004
3.86932
3.82949
3.79035
3.75202
3.71415
3.67687
3.63971
3.60285
3.566
3.52931
3.49255
3.45586
3.41915
3.38245
3.34565
3.30859
3.27105
3.23221
3.19019
3.14466
3.11803
5.38475
4.49007
4.00757
3.65185
3.56133
3.51179
3.26259
2.88366
2.63183
2.50713
2.49461
2.53648
2.52314
2.4516
2.32001
2.19205
2.15807
2.15265
2.16084
2.16719
2.1685
2.15915
2.15451
2.13314
2.13499
2.10118
2.09381
2.07028
2.08188
2.09413
2.12605
2.17481
2.21544
2.29794
2.41778
2.51915
2.66526
2.84488
3.01769
3.19203
3.36244
3.56591
3.76837
3.92745
4.10245
4.2458
4.3554
4.48764
4.60658
4.68467
4.75121
4.79637
4.82522
4.84692
4.84121
4.83318
4.8269
4.8075
4.7833
4.75133
4.71519
4.67624
4.63303
4.58768
4.54132
4.49352
4.4452
4.39828
4.35266
4.30756
4.26251
4.21717
4.17137
4.12491
4.07819
4.03239
3.98863
3.94681
3.90596
3.86574
3.82622
3.78737
3.74924
3.71163
3.67442
3.63741
3.60054
3.56372
3.52691
3.49012
3.45336
3.41671
3.38006
3.34351
3.30667
3.26944
3.23079
3.18851
3.14108
3.11179
5.55092
4.74033
4.12974
3.77609
3.64954
3.53931
3.33393
2.93939
2.59778
2.47733
2.49868
2.54828
2.52614
2.47239
2.39593
2.28269
2.20077
2.15105
2.14252
2.1532
2.15778
2.15146
2.1393
2.11697
2.10565
2.0787
2.08906
2.08003
2.09199
2.09235
2.10973
2.1423
2.20666
2.29162
2.40767
2.51347
2.63604
2.77658
2.93288
3.0717
3.25361
3.45653
3.64795
3.82285
3.9946
4.14362
4.26674
4.40331
4.51821
4.60768
4.68506
4.73397
4.77198
4.78007
4.78003
4.78395
4.78558
4.76578
4.74421
4.71853
4.68511
4.64992
4.61054
4.56732
4.52163
4.47503
4.42955
4.38529
4.34136
4.29765
4.2537
4.20927
4.16407
4.11794
4.07145
4.02585
3.98268
3.9417
3.90155
3.86185
3.82268
3.78407
3.74621
3.70886
3.67177
3.63483
3.59791
3.56101
3.52407
3.4872
3.45042
3.41385
3.3773
3.34086
3.30411
3.26691
3.22836
3.18596
3.13739
3.1061
5.69849
4.92902
4.35191
3.94514
3.75577
3.62526
3.4471
3.07063
2.74221
2.57313
2.54657
2.56194
2.5349
2.46497
2.35676
2.2393
2.17688
2.15315
2.15844
2.16474
2.16906
2.15652
2.15261
2.12683
2.12851
2.0952
2.09995
2.06784
2.08819
2.09789
2.12254
2.15511
2.19298
2.25311
2.32518
2.39545
2.49218
2.59346
2.74573
2.89651
3.08591
3.28217
3.46857
3.6694
3.84614
4.01476
4.15014
4.26658
4.37771
4.49979
4.59808
4.67361
4.70934
4.71537
4.72175
4.73134
4.72959
4.7234
4.70725
4.69113
4.66201
4.62725
4.58836
4.54495
4.50084
4.45744
4.41474
4.37257
4.32985
4.28698
4.24363
4.19949
4.15408
4.10798
4.06218
4.0178
3.976
3.93602
3.89665
3.85762
3.81888
3.78059
3.74297
3.70579
3.6687
3.63171
3.59463
3.55749
3.52037
3.48347
3.44676
3.41028
3.37388
3.3375
3.30086
3.26374
3.22526
3.18274
3.13325
3.10043
5.78945
5.07121
4.52424
4.13588
3.87286
3.71269
3.53579
3.2544
2.93983
2.70364
2.5869
2.56364
2.54343
2.50047
2.41819
2.30152
2.22707
2.17637
2.15493
2.15269
2.15806
2.15132
2.14211
2.12366
2.11358
2.09175
2.09921
2.08931
2.11421
2.13834
2.15339
2.17279
2.20838
2.23105
2.25422
2.30436
2.36169
2.43794
2.53085
2.64079
2.78406
2.93726
3.12233
3.3274
3.56238
3.81104
4.01099
4.15892
4.26654
4.3603
4.45747
4.56936
4.63028
4.65351
4.67351
4.6657
4.65934
4.66571
4.65898
4.6502
4.6267
4.59033
4.55471
4.51806
4.47905
4.43832
4.39692
4.35577
4.31492
4.2742
4.2322
4.18829
4.14322
4.09818
4.0537
4.01069
3.96989
3.93054
3.8917
3.85308
3.81472
3.77675
3.73917
3.70194
3.66476
3.62763
3.59046
3.55328
3.51616
3.47928
3.44267
3.40631
3.37004
3.33373
3.29705
3.25971
3.221
3.17818
3.12789
3.09399
5.88497
5.22243
4.67596
4.28481
4.01316
3.8332
3.63222
3.38843
3.1257
2.88986
2.70152
2.61757
2.58111
2.53629
2.47335
2.36621
2.24939
2.17323
2.14581
2.15166
2.1656
2.16242
2.15643
2.12913
2.13206
2.10622
2.1413
2.11306
2.18336
2.26348
2.30167
2.31357
2.30137
2.27194
2.24798
2.25471
2.27827
2.31977
2.36204
2.43481
2.52676
2.62808
2.76087
2.91307
3.10953
3.36598
3.66496
3.97555
4.17771
4.27213
4.34057
4.41093
4.49769
4.5676
4.62028
4.63767
4.61862
4.60933
4.60497
4.59709
4.58455
4.55921
4.52987
4.49596
4.45645
4.41864
4.38133
4.34165
4.30018
4.25845
4.21623
4.17397
4.1314
4.08817
4.04525
4.00392
3.96398
3.92474
3.88597
3.84774
3.80986
3.77233
3.73505
3.69791
3.66072
3.62344
3.58597
3.54851
3.51139
3.47467
3.43829
3.40206
3.36584
3.32933
3.29237
3.25466
3.21563
3.1725
3.1217
3.08715
5.94168
5.34113
4.82561
4.42174
4.1533
3.94165
3.75731
3.53355
3.29113
3.04804
2.84457
2.70163
2.62531
2.57957
2.52233
2.44052
2.33029
2.23087
2.1693
2.15105
2.15648
2.15919
2.16305
2.15616
2.14067
2.15515
2.15623
2.28581
2.30976
2.50416
2.55572
2.55353
2.50207
2.39958
2.32363
2.29211
2.28746
2.29412
2.3073
2.33459
2.37312
2.42112
2.49154
2.57017
2.70457
2.88737
3.11858
3.43299
3.81388
4.15899
4.33979
4.34623
4.3628
4.42185
4.49205
4.55159
4.56309
4.56528
4.55598
4.54134
4.53713
4.52394
4.49733
4.46516
4.42929
4.3934
4.35769
4.32139
4.28366
4.2437
4.20168
4.15927
4.11755
4.07653
4.03594
3.99554
3.95572
3.91698
3.87887
3.84122
3.80366
3.76627
3.729
3.69178
3.65447
3.61706
3.57969
3.54252
3.50573
3.46932
3.43312
3.39684
3.36038
3.32358
3.28636
3.24836
3.20899
3.16554
3.11414
3.07899
5.99999
5.43428
4.95047
4.55881
4.28118
4.04141
3.86397
3.65601
3.42375
3.18832
2.97127
2.79419
2.69294
2.62165
2.55999
2.48237
2.39518
2.30326
2.21696
2.17399
2.16074
2.16549
2.15738
2.16966
2.15682
2.21301
2.25324
2.54208
2.8277
2.98091
2.95566
2.89135
2.73865
2.57733
2.45754
2.38682
2.344
2.31675
2.30154
2.30144
2.30693
2.32514
2.34932
2.38406
2.46161
2.5429
2.68084
2.90109
3.18205
3.55485
4.01551
4.30359
4.38654
4.36997
4.38239
4.41348
4.47519
4.50436
4.50743
4.4953
4.49313
4.48459
4.46233
4.4314
4.401
4.36931
4.3359
4.29933
4.2615
4.22337
4.18453
4.14477
4.10527
4.0667
4.02795
3.98887
3.94944
3.91013
3.8717
3.83433
3.79723
3.76023
3.72318
3.68613
3.64903
3.61175
3.57446
3.53732
3.50047
3.46381
3.42724
3.39055
3.35367
3.31645
3.27878
3.24023
3.20027
3.15624
3.10418
3.06849
6.05681
5.52844
5.05818
4.67824
4.38115
4.13989
3.9571
3.75827
3.53776
3.31368
3.09322
2.90358
2.76876
2.67933
2.60789
2.5463
2.46994
2.37804
2.29184
2.2202
2.18227
2.17022
2.1697
2.17544
2.21139
2.28248
2.51684
2.97284
3.5373
3.52184
3.46132
3.28767
3.05118
2.84975
2.70349
2.59668
2.51148
2.44413
2.38721
2.34127
2.31182
2.30397
2.29595
2.30855
2.33324
2.35842
2.42882
2.52416
2.66412
2.92112
3.27609
3.72549
4.1921
4.41235
4.38236
4.34324
4.35912
4.39895
4.44251
4.45098
4.44887
4.42798
4.40849
4.39258
4.37714
4.35062
4.31753
4.27974
4.23896
4.20034
4.16341
4.12664
4.08916
4.05116
4.0132
3.97576
3.93832
3.90019
3.86229
3.82547
3.7891
3.75289
3.7167
3.68023
3.64327
3.60581
3.56841
3.53129
3.49451
3.45779
3.42099
3.38388
3.34636
3.30838
3.26992
3.23069
3.19027
3.14599
3.09377
3.05788
6.10596
5.61296
5.15911
4.78022
4.46796
4.22778
4.03236
3.84887
3.64311
3.42574
3.21308
3.01452
2.85832
2.74548
2.66111
2.6
2.52172
2.44452
2.36406
2.28144
2.21563
2.18558
2.17938
2.20473
2.27152
2.43536
2.86324
3.53594
4.05708
4.06954
3.94039
3.66451
3.40682
3.20324
3.03263
2.88359
2.76089
2.65513
2.56275
2.48264
2.41648
2.36028
2.31949
2.29667
2.2887
2.29364
2.30675
2.32849
2.3912
2.51587
2.69512
3.00568
3.43191
3.97877
4.32717
4.40481
4.34364
4.31682
4.32264
4.35639
4.37541
4.38727
4.37085
4.35443
4.34219
4.32252
4.29192
4.25833
4.21929
4.17968
4.1444
4.11121
4.07721
4.04142
4.00363
3.96517
3.92695
3.88983
3.85371
3.81775
3.78146
3.74505
3.70866
3.67224
3.63571
3.59896
3.56195
3.52472
3.4876
3.45046
3.41314
3.37535
3.33702
3.29826
3.25917
3.21945
3.17865
3.13402
3.08139
3.0451
6.13702
5.67586
5.2419
4.86744
4.5608
4.31872
4.1057
3.92805
3.73306
3.52723
3.32763
3.12704
2.95341
2.82283
2.71971
2.64341
2.5732
2.50614
2.42199
2.33702
2.25574
2.21723
2.22226
2.26177
2.39701
2.7444
3.45451
4.28617
4.53781
4.4423
4.21515
3.95247
3.72461
3.51316
3.31774
3.14808
3.00395
2.87735
2.76608
2.66699
2.57794
2.49804
2.42727
2.36237
2.31873
2.28441
2.26873
2.26449
2.2828
2.3141
2.38895
2.52435
2.7607
3.13003
3.62862
4.16007
4.41128
4.37567
4.28894
4.26068
4.27555
4.3175
4.33659
4.32807
4.30858
4.28971
4.25704
4.22408
4.19231
4.15831
4.12315
4.08942
4.05521
4.02215
3.98827
3.95331
3.91721
3.88084
3.84471
3.80911
3.77332
3.73746
3.70163
3.66564
3.62919
3.59241
3.55536
3.51812
3.48083
3.44328
3.4052
3.3665
3.32722
3.28771
3.24803
3.2079
3.16677
3.12179
3.06863
3.03186
6.18889
5.7453
5.32449
4.95454
4.64965
4.39806
4.18494
4.00499
3.81604
3.61796
3.42167
3.23428
3.04694
2.90255
2.78761
2.6972
2.62472
2.55734
2.47865
2.39635
2.30622
2.27552
2.3002
2.38947
2.66739
3.30532
4.23417
4.82405
4.76186
4.62051
4.42198
4.21754
4.00911
3.7981
3.5986
3.41631
3.25411
3.11042
2.98381
2.86866
2.76012
2.65632
2.56613
2.4926
2.42208
2.35943
2.30797
2.27437
2.25684
2.24811
2.26609
2.29922
2.39309
2.56825
2.85373
3.27346
3.85305
4.26665
4.37714
4.28096
4.21066
4.21204
4.24818
4.27913
4.26767
4.24811
4.22541
4.19453
4.16754
4.14194
4.11174
4.0791
4.04302
4.00678
3.97342
3.94057
3.90728
3.8733
3.83748
3.80048
3.76411
3.72848
3.69296
3.65728
3.62104
3.58425
3.5469
3.50912
3.47125
3.43308
3.39436
3.35503
3.31501
3.2749
3.23482
3.19438
3.15296
3.10773
3.05409
3.0165
6.22248
5.79978
5.39155
5.02647
4.72544
4.46939
4.25516
4.07685
3.89943
3.71014
3.51009
3.3271
3.14716
2.98491
2.86426
2.7588
2.67782
2.60328
2.54038
2.45139
2.38789
2.36794
2.4269
2.64161
3.20018
4.10183
4.80978
4.94358
4.88168
4.76777
4.616
4.44107
4.24425
4.0405
3.84128
3.65288
3.47959
3.3238
3.18406
3.05674
2.9329
2.82273
2.73057
2.63843
2.55662
2.4855
2.41766
2.36002
2.30009
2.25917
2.22869
2.22761
2.25019
2.28937
2.39977
2.62583
2.97037
3.45866
4.0374
4.32817
4.32779
4.2317
4.17855
4.17539
4.1994
4.19462
4.19453
4.16608
4.13252
4.10413
4.07971
4.05528
4.02833
3.99574
3.95966
3.92606
3.89401
3.86094
3.82689
3.79118
3.75388
3.71689
3.68124
3.64602
3.61035
3.57388
3.53638
3.49785
3.4591
3.42018
3.38089
3.34135
3.30129
3.26098
3.22065
3.17992
3.13809
3.09229
3.03789
2.99933
6.27387
5.86439
5.46722
5.10189
4.80089
4.54125
4.32285
4.14243
3.97057
3.79424
3.60638
3.42211
3.24936
3.07969
2.94174
2.82702
2.73916
2.65779
2.57772
2.5093
2.48686
2.51153
2.66615
3.12356
3.95919
4.77356
5.03269
5.00247
4.93864
4.85145
4.73575
4.59542
4.42864
4.24622
4.05665
3.87088
3.69228
3.5279
3.37912
3.23792
3.10925
2.99943
2.888
2.78717
2.70366
2.62059
2.54531
2.46658
2.39137
2.3272
2.26842
2.23185
2.20604
2.19264
2.23228
2.29859
2.44115
2.70479
3.09625
3.64812
4.16066
4.34491
4.25299
4.1313
4.09468
4.10873
4.12792
4.12679
4.11984
4.09181
4.05647
4.02107
3.99761
3.97574
3.94835
3.91577
3.88182
3.84774
3.81351
3.77918
3.74307
3.707
3.67191
3.63655
3.60032
3.56304
3.52489
3.48575
3.44644
3.40708
3.36732
3.327
3.28609
3.24514
3.2045
3.16346
3.12103
3.07473
3.01966
2.98006
6.30211
5.92215
5.54499
5.18008
4.87939
4.61856
4.39254
4.21024
4.03866
3.86359
3.68427
3.51087
3.34461
3.18133
3.02323
2.90581
2.80628
2.70969
2.63011
2.59494
2.6149
2.74692
3.13248
3.88222
4.74857
5.10158
5.07589
5.03456
4.98633
4.9248
4.83643
4.71904
4.57636
4.41566
4.24382
4.06597
3.88873
3.72115
3.56123
3.41425
3.28606
3.16045
3.04249
2.93996
2.8432
2.75169
2.66301
2.5723
2.48909
2.41554
2.3518
2.29409
2.24174
2.20649
2.18262
2.17565
2.20558
2.30078
2.4751
2.80961
3.27249
3.87981
4.22439
4.26614
4.15293
4.05786
4.0209
4.04785
4.06028
4.05656
4.04007
4.0073
3.9776
3.95214
3.92929
3.90345
3.87127
3.83565
3.79767
3.76073
3.72638
3.69319
3.66024
3.62546
3.588
3.54862
3.50844
3.46865
3.42925
3.38989
3.34994
3.30949
3.26801
3.22663
3.18588
3.14482
3.1021
3.05553
2.99994
2.9594
6.35545
5.99335
5.63148
5.27068
4.94914
4.6944
4.46177
4.27268
4.10993
3.93946
3.76045
3.58722
3.42854
3.27653
3.11833
2.98529
2.8591
2.75749
2.71118
2.71936
2.83391
3.18216
3.8781
4.78796
5.20195
5.16959
5.12443
5.08387
5.04161
4.98597
4.90948
4.80855
4.68594
4.54541
4.38864
4.22471
4.06182
3.89659
3.73572
3.5898
3.45164
3.31867
3.19598
3.08043
2.96436
2.86392
2.76613
2.67461
2.58987
2.51479
2.44409
2.37771
2.31162
2.24719
2.19354
2.16023
2.13086
2.14079
2.19945
2.33385
2.58073
2.93127
3.43897
3.99442
4.24346
4.20106
4.06442
3.98706
3.95853
3.97997
3.99028
3.98976
3.97654
3.94214
3.90415
3.87227
3.84444
3.81573
3.78429
3.74865
3.71135
3.67688
3.64408
3.61026
3.57411
3.53567
3.49476
3.45325
3.4124
3.37218
3.33165
3.29083
3.24918
3.20693
3.16511
3.12309
3.07945
3.03247
2.97704
2.93632
6.37732
6.07248
5.73242
5.3855
5.0396
4.77534
4.54064
4.33785
4.17876
4.01468
3.84034
3.66441
3.50626
3.36416
3.21658
3.06847
2.91134
2.84386
2.83506
2.92736
3.2365
3.90658
4.85409
5.32782
5.29795
5.2454
5.19444
5.14513
5.09343
5.03521
4.96627
4.88296
4.77866
4.65637
4.51409
4.36399
4.20402
4.04378
3.89089
3.74331
3.59751
3.45495
3.32091
3.19137
3.07837
2.97349
2.86961
2.77373
2.68585
2.60315
2.52427
2.45073
2.37984
2.31299
2.24791
2.19129
2.13986
2.10399
2.11307
2.14057
2.20424
2.36488
2.6511
3.05745
3.60081
4.04594
4.18905
4.08357
3.96054
3.90773
3.9117
3.92881
3.93174
3.9262
3.89653
3.85631
3.81934
3.78802
3.76111
3.73237
3.69883
3.66339
3.6293
3.59382
3.5555
3.5154
3.4741
3.43253
3.39082
3.35015
3.30898
3.26684
3.225
3.18289
3.14088
3.09896
3.05571
3.00877
2.95328
2.91234
6.41394
6.11949
5.80108
5.48446
5.146
4.86316
4.63103
4.40877
4.2478
4.09369
3.92493
3.7464
3.58639
3.44124
3.30128
3.13817
3.01586
2.95913
3.03456
3.30987
3.94972
4.92237
5.47999
5.46304
5.41066
5.33966
5.27012
5.20676
5.14415
5.08094
5.01384
4.9386
4.84917
4.74414
4.62267
4.4853
4.33282
4.17873
4.02313
3.86861
3.71517
3.57187
3.4352
3.31072
3.20075
3.08764
2.97985
2.87919
2.7844
2.69404
2.61624
2.54435
2.47678
2.41197
2.34072
2.27346
2.20509
2.14461
2.10362
2.08011
2.07194
2.11885
2.22353
2.42366
2.74995
3.2092
3.80107
4.09682
4.09925
3.98986
3.8919
3.84952
3.85771
3.87057
3.8737
3.85274
3.81448
3.76882
3.73146
3.7024
3.67509
3.6447
3.61319
3.57795
3.53674
3.49343
3.45102
3.41104
3.36977
3.32786
3.28647
3.24355
3.20094
3.15846
3.11577
3.07324
3.02963
2.98235
2.92626
2.88486
6.44243
6.17423
5.88086
5.56553
5.25177
4.9451
4.71728
4.48489
4.29309
4.15818
4.00557
3.82897
3.65476
3.51092
3.37193
3.22223
3.15245
3.17058
3.39069
3.99542
4.961
5.66147
5.67617
5.62065
5.52343
5.42899
5.35031
5.2798
5.20686
5.13359
5.06126
4.98703
4.90624
4.81328
4.70713
4.58381
4.45072
4.304
4.15031
3.99459
3.84736
3.70704
3.57195
3.44375
3.31546
3.19826
3.08974
2.98554
2.88458
2.79261
2.70847
2.63039
2.55434
2.48343
2.41181
2.33369
2.26546
2.20291
2.14527
2.09607
2.06784
2.03585
2.07068
2.13361
2.26422
2.50459
2.84693
3.34566
3.86774
4.09354
4.03613
3.90151
3.81982
3.78307
3.7958
3.796
3.78478
3.76075
3.72291
3.68118
3.64795
3.61739
3.58612
3.55363
3.51412
3.47026
3.42615
3.38251
3.34112
3.29961
3.2583
3.21529
3.1719
3.12965
3.08688
3.04453
3.00131
2.9537
2.89745
2.8562
6.36246
6.20304
5.93711
5.66242
5.36828
5.05444
4.80048
4.57247
4.36132
4.20965
4.06743
3.90409
3.72092
3.56874
3.43807
3.35306
3.36287
3.54375
4.09316
5.03315
5.84435
5.92048
5.84088
5.72428
5.61616
5.53087
5.44797
5.3601
5.26853
5.18405
5.10726
5.03221
4.95397
4.86799
4.7718
4.663
4.5412
4.40855
4.26729
4.12152
3.97468
3.82873
3.68778
3.55238
3.42621
3.30574
3.19114
3.08361
2.98146
2.88794
2.79989
2.71903
2.64064
2.56561
2.49123
2.41706
2.34564
2.27747
2.2133
2.15009
2.09271
2.04964
2.03462
2.03064
2.05781
2.13189
2.2914
2.56776
2.97923
3.55857
3.93726
4.01318
3.93215
3.81896
3.74034
3.71779
3.72794
3.72283
3.70534
3.6722
3.63516
3.59843
3.56022
3.52387
3.48572
3.44351
3.40223
3.35895
3.31386
3.26984
3.22763
3.18641
3.14352
3.10207
3.05866
3.01335
2.96853
2.92113
2.86596
2.82535
5.83605
6.26336
6.01926
5.72795
5.44003
5.14196
4.8677
4.64507
4.43821
4.27716
4.13043
3.97117
3.78679
3.62876
3.54368
3.55368
3.71943
4.24255
5.15775
6.04633
6.26059
6.09439
5.91565
5.80177
5.72584
5.64194
5.5449
5.43845
5.33382
5.24064
5.15834
5.07935
4.99899
4.9145
4.82376
4.72428
4.61404
4.49424
4.3641
4.22709
4.08431
3.94333
3.80351
3.66977
3.53997
3.41587
3.29805
3.18619
3.08236
2.98501
2.89435
2.80892
2.73007
2.6528
2.57727
2.50485
2.42572
2.34497
2.27402
2.21402
2.15416
2.09939
2.05018
2.02054
1.99498
1.99732
2.04264
2.15133
2.36764
2.6911
3.14079
3.70345
3.9514
3.92895
3.81032
3.71242
3.65496
3.6414
3.63819
3.63228
3.61675
3.58504
3.53568
3.48776
3.4484
3.41046
3.37275
3.33269
3.28705
3.2396
3.19432
3.15298
3.11138
3.06875
3.02555
2.98055
2.93444
2.88661
2.83261
2.7927
4.56048
5.82579
5.88424
5.6857
5.44268
5.20953
4.94333
4.71243
4.4971
4.3133
4.18241
4.03526
3.86511
3.74573
3.74008
3.90598
4.4167
5.3558
6.32546
6.61099
6.40298
6.16243
6.01891
5.93575
5.84989
5.74862
5.63629
5.51933
5.40659
5.3033
5.21099
5.12593
5.04135
4.95564
4.86687
4.77229
4.67037
4.55952
4.44023
4.31343
4.1814
4.04554
3.90994
3.77503
3.64352
3.51576
3.3922
3.27487
3.16643
3.0651
2.97046
2.88086
2.79656
2.71624
2.63896
2.56349
2.48929
2.416
2.34673
2.28437
2.22485
2.16654
2.11186
2.05915
2.0108
1.97766
1.96315
2.00031
2.05988
2.18247
2.44367
2.82606
3.33085
3.75868
3.88789
3.81924
3.69889
3.61791
3.58176
3.58294
3.57151
3.54818
3.51285
3.46359
3.41671
3.37491
3.33643
3.29738
3.25462
3.20864
3.16003
3.11383
3.07388
3.03309
2.98925
2.94498
2.89988
2.85218
2.79813
2.75894
3.34788
5.15919
5.93885
5.78219
5.5216
5.30512
5.08018
4.83416
4.61249
4.39576
4.21991
4.08843
3.98566
3.96428
4.12281
4.63336
5.59758
6.65293
6.9982
6.74582
6.45164
6.26806
6.16409
6.06063
5.9571
5.84432
5.72568
5.60511
5.48606
5.37236
5.26904
5.17498
5.08511
4.99559
4.90443
4.81085
4.71243
4.60859
4.49842
4.38153
4.25893
4.13177
4.00196
3.87086
3.74086
3.6132
3.48998
3.37207
3.26083
3.15709
3.06048
2.96782
2.87692
2.78901
2.70443
2.62376
2.5463
2.47297
2.40464
2.34045
2.27937
2.22243
2.16448
2.11064
2.0562
2.00605
1.97238
1.9528
1.94133
1.98642
2.08763
2.2583
2.54398
2.96578
3.51947
3.7673
3.76392
3.68382
3.5926
3.52491
3.48682
3.47908
3.46233
3.43286
3.39094
3.34495
3.29768
3.25384
3.20953
3.16626
3.12091
3.07645
3.03486
2.99593
2.95402
2.90742
2.8605
2.81358
2.76131
2.72347
2.49214
4.14126
5.53802
5.84542
5.62686
5.38008
5.15934
4.92523
4.7114
4.50652
4.28732
4.17335
4.17903
4.34148
4.88449
5.89141
7.04153
7.44397
7.14826
6.80303
6.57839
6.44883
6.32253
6.19989
6.07477
5.94703
5.82101
5.69633
5.57165
5.44952
5.33464
5.22944
5.13082
5.03557
4.94091
4.8452
4.74734
4.64651
4.54148
4.43245
4.31877
4.20074
4.07907
3.95484
3.8284
3.70297
3.57942
3.45915
3.34455
3.23822
3.13862
3.04469
2.95365
2.86335
2.77428
2.6885
2.60681
2.53072
2.46307
2.39925
2.33713
2.27725
2.22119
2.16893
2.11483
2.06258
2.01305
1.9655
1.94087
1.93147
1.94348
1.98347
2.10264
2.33001
2.66123
3.09054
3.5448
3.7217
3.68812
3.57705
3.47492
3.40968
3.38281
3.36731
3.34592
3.31672
3.27284
3.216
3.1599
3.11025
3.06802
3.03357
2.99816
2.95873
2.91762
2.87107
2.82161
2.77482
2.72601
2.69024
1.49754
2.69108
4.37062
5.48786
5.59717
5.42472
5.22272
4.98922
4.75086
4.5447
4.41003
4.38905
4.57945
5.15775
6.23253
7.47238
7.9179
7.58499
7.19272
6.92625
6.77224
6.63131
6.48399
6.33446
6.1882
6.04947
5.91546
5.78314
5.65223
5.52332
5.39933
5.28351
5.17544
5.07289
4.97321
4.87352
4.77393
4.67288
4.57115
4.46746
4.36151
4.25192
4.13882
4.02147
3.9016
3.78028
3.66044
3.5432
3.43072
3.32414
3.22255
3.12549
3.03135
2.93982
2.8506
2.76376
2.68045
2.6024
2.52603
2.45588
2.39445
2.33571
2.28016
2.22328
2.17018
2.11514
2.06343
2.01491
1.96907
1.92705
1.9087
1.89491
1.92949
1.99951
2.12984
2.39018
2.77655
3.25718
3.55491
3.59498
3.53712
3.42801
3.34965
3.30445
3.28517
3.25863
3.22508
3.17434
3.11355
3.0603
3.02276
2.9931
2.9633
2.9266
2.88006
2.82967
2.77913
2.73124
2.68305
2.64977
1.0038
1.70781
3.25114
4.89058
5.62329
5.54165
5.31986
5.10181
4.83473
4.65654
4.62839
4.82289
5.48566
6.67542
7.97584
8.40928
8.04456
7.60715
7.29966
7.12109
6.97297
6.81039
6.63874
6.46645
6.30803
6.15994
6.01569
5.875
5.73742
5.60296
5.47187
5.34644
5.22822
5.11628
5.0087
4.90355
4.80003
4.6982
4.59677
4.49569
4.39358
4.2899
4.18313
4.07328
3.96038
3.84559
3.73107
3.61784
3.5073
3.39853
3.29325
3.19168
3.09342
2.99839
2.90644
2.81775
2.7324
2.65146
2.57696
2.50978
2.44814
2.38968
2.33179
2.27492
2.21777
2.16328
2.11322
2.06864
2.02291
1.97858
1.93318
1.89772
1.8751
1.86354
1.89159
1.99908
2.16805
2.47639
2.84605
3.26138
3.46029
3.46334
3.39254
3.29902
3.22566
3.17701
3.1438
3.11332
3.06368
3.01187
2.97756
2.94821
2.91928
2.88887
2.84424
2.78864
2.73585
2.68939
2.64555
2.6146
1.02909
1.28343
2.36782
3.88988
5.16787
5.5617
5.41946
5.14968
4.95536
4.89387
5.10194
5.82178
7.16167
8.52449
8.87499
8.48974
8.02637
7.68812
7.48824
7.33516
7.16973
6.97975
6.78313
6.59551
6.42213
6.26024
6.10565
5.95643
5.81255
5.67235
5.53537
5.40233
5.275
5.15433
5.0385
4.92576
4.81664
4.71158
4.61071
4.51187
4.41303
4.31348
4.2123
4.10861
4.00281
3.89533
3.78811
3.68126
3.57543
3.47083
3.36816
3.26746
3.16905
3.07332
2.98055
2.89136
2.80532
2.7233
2.64652
2.57734
2.51436
2.45381
2.39469
2.33572
2.277
2.21981
2.16662
2.11869
2.07193
2.02708
1.98083
1.93386
1.88478
1.84991
1.82503
1.83597
1.87838
1.98641
2.20251
2.51617
2.9565
3.26653
3.35879
3.32151
3.23275
3.14464
3.07973
3.03954
3.00585
2.96392
2.9305
2.90231
2.87343
2.84339
2.8
2.74085
2.68559
2.64093
2.60188
2.57221
1.00739
1.05409
1.46177
2.51286
4.01378
5.09643
5.3281
5.15665
5.06879
5.33214
6.19529
7.81787
9.14539
9.36935
8.96468
8.48042
8.11703
7.90685
7.73105
7.5615
7.36057
7.14106
6.93383
6.74135
6.55792
6.38326
6.21635
6.05683
5.90334
5.75513
5.61082
5.47017
5.33391
5.2039
5.07896
4.95804
4.84092
4.72956
4.62567
4.52705
4.42937
4.33164
4.23294
4.13309
4.03237
3.93195
3.83161
3.73149
3.63133
3.53103
3.43035
3.32956
3.22978
3.13217
3.03753
2.94682
2.85916
2.77567
2.69831
2.62945
2.56649
2.5068
2.44742
2.38871
2.33004
2.27196
2.21796
2.16737
2.11734
2.06873
2.01926
1.97129
1.92138
1.87667
1.82776
1.79693
1.78078
1.77498
1.84886
2.00205
2.26896
2.65428
3.03177
3.21905
3.21432
3.14709
3.05501
2.9826
2.94056
2.90799
2.88457
2.8551
2.82634
2.79538
2.75258
2.69449
2.64275
2.59919
2.5584
2.52919
1.0035