/*--------------------------------*- C++ -*----------------------------------*\
| =========                 |                                                 |
| \\      /  F ield         | OpenFOAM: The Open Source CFD Toolbox           |
|  \\    /   O peration     | Version:  v2106                                 |
|   \\  /    A nd           | Website:  www.openfoam.com                      |
|    \\/     M anipulation  |                                                 |
\*---------------------------------------------------------------------------*/
FoamFile
{
    version     2.0;
    format      ascii;
    arch        "LSB;label=32;scalar=64";
    class       surfaceScalarField;
    location    "9";
    object      phi;
}
// * * * * * * * * * * * * * * * * * * * * * * * * * * * * * * * * * * * * * //

dimensions      [1 0 -1 0 0 0 0];

oriented        oriented;

internalField   nonuniform List<scalar> 
10325
(
0.0084507
3.25261e-19
0.0084507
3.7405e-18
0.0084507
5.42074e-16
0.0084507
-3.38786e-16
0.0084507
4.26331e-14
0.0084507
1.05942e-13
0.0084507
3.33806e-12
0.0084507
1.10696e-11
0.00845067
2.55635e-10
0.00845043
1.02975e-09
0.00844823
1.91496e-08
0.00842883
1.07255e-07
0.0082697
1.35968e-06
0.00745251
1.41393e-05
0.00647005
2.51427e-05
0.00586434
0.000826327
0.00693608
0.000613596
0.0063003
0.000630995
0.00554979
0.000697678
0.00483669
0.000741062
0.00402724
0.000809393
0.00315261
0.000874262
0.00220737
0.000952253
0.00117653
0.0010407
0.00117508
0.0084507
1.94072e-17
0.0084507
-4.29615e-17
0.0084507
1.1814e-15
0.0084507
-7.30186e-15
0.0084507
9.72661e-14
0.0084507
2.78353e-14
0.0084507
7.32323e-12
0.0084507
1.13601e-11
0.00845067
5.56155e-10
0.00845043
1.20443e-09
0.00844831
4.20108e-08
0.00842948
1.53371e-07
0.00827524
2.88848e-06
0.00746622
2.88964e-05
0.00647024
6.22132e-05
0.00580519
0.00164033
0.00688514
0.00128387
0.00626183
0.00125007
0.0055021
0.00140285
0.00478056
0.00148934
0.00396421
0.00162642
0.00308426
0.00175529
0.00212504
0.00191996
0.00108342
0.00209323
0.00225781
0.0084507
1.30104e-17
0.0084507
-1.4756e-16
0.0084507
1.62744e-15
0.0084507
-4.44122e-14
0.0084507
2.66346e-13
0.0084507
-8.33189e-13
0.0084507
1.634e-11
0.0084507
-2.66091e-11
0.00845068
1.04687e-09
0.00845045
-1.92449e-09
0.00844849
6.56855e-08
0.00843097
-3.96856e-08
0.00828811
4.26811e-06
0.00750223
4.10014e-05
0.00649724
9.85758e-05
0.00578819
0.00229136
0.00691252
0.00209934
0.0062704
0.00188394
0.00550246
0.00211601
0.00480027
0.00222039
0.00399904
0.00242875
0.00311885
0.00263806
0.00214799
0.00290324
0.00110296
0.00315378
0.0033655
0.0084507
-2.24159e-17
0.0084507
-1.97054e-16
0.0084507
3.48327e-16
0.0084507
-4.83899e-14
0.0084507
4.01995e-13
0.0084507
-5.68232e-13
0.0084507
2.33791e-11
0.0084507
1.51559e-11
0.00845068
1.41453e-09
0.00845047
2.11236e-09
0.00844871
8.37582e-08
0.00843325
-1.14316e-06
0.00830623
5.70105e-06
0.00755477
5.01247e-05
0.00653491
0.000136432
0.00582938
0.00272522
0.00702079
0.00303511
0.0063559
0.00253777
0.00557626
0.00283858
0.00485096
0.00297895
0.0040423
0.00323913
0.00315029
0.00353433
0.00219572
0.00387144
0.00113364
0.00423303
0.00450457
0.0084507
-2.58311e-17
0.0084507
5.27464e-16
0.0084507
2.38652e-15
0.0084507
1.03712e-13
0.0084507
-3.48554e-14
0.0084507
1.80731e-13
0.0084507
7.11465e-12
0.0084507
-2.20279e-11
0.00845069
1.08167e-09
0.0084505
-6.50424e-09
0.00844898
1.53362e-07
0.00843604
-3.42318e-06
0.00832869
6.77543e-06
0.00762727
5.45323e-05
0.00660503
0.00015994
0.00602314
0.00292776
0.00720482
0.00405335
0.0065115
0.00321794
0.00571576
0.00357297
0.00497531
0.00376068
0.00418397
0.00403566
0.00331756
0.00440705
0.00233961
0.00486518
0.00120781
0.00538255
0.00572042
0.0084507
-4.64201e-16
0.0084507
8.42181e-16
0.0084507
-1.5732e-15
0.0084507
9.0865e-14
0.0084507
-1.9828e-14
0.0084507
-2.27582e-12
0.0084507
1.78489e-11
0.0084507
-9.90727e-11
0.00845069
1.62165e-09
0.00845055
-1.55037e-08
0.00844937
1.51618e-07
0.00843693
-2.18376e-06
0.00834834
6.18041e-06
0.00771052
5.20368e-05
0.00669658
0.000158054
0.0063059
0.00277797
0.00749974
0.00516357
0.00675219
0.0039558
0.0059527
0.00431037
0.0051673
0.00459491
0.0043628
0.00484392
0.00344279
0.00533267
0.00244388
0.00588014
0.00128732
0.00656771
0.00702802
0.0084507
-5.16162e-16
0.0084507
8.36191e-16
0.0084507
-6.33906e-15
0.0084507
1.16875e-14
0.0084507
-2.91548e-13
0.0084507
-3.11791e-12
0.0084507
2.72158e-11
0.0084507
-4.7108e-11
0.00845069
1.59394e-09
0.00845058
-4.11184e-09
0.00844978
7.17263e-08
0.00843858
3.83448e-07
0.00836844
4.64044e-06
0.00780345
4.48228e-05
0.00677534
0.00016765
0.00659817
0.00224128
0.00806599
0.00611685
0.00721367
0.00480654
0.00635908
0.00510658
0.00556367
0.00545745
0.0047196
0.0057013
0.0038782
0.0061976
0.0027898
0.00700938
0.00151502
0.00786752
0.00857051
0.0084507
8.5652e-18
0.0084507
-4.59593e-16
0.0084507
3.63452e-16
0.0084507
1.88743e-14
0.0084507
1.20499e-13
0.0084507
1.10485e-12
0.0084507
-1.36338e-12
0.0084507
-2.6752e-12
0.0084507
8.23673e-10
0.00845057
3.58164e-09
0.00845004
5.32451e-08
0.00844127
3.84182e-07
0.00838529
4.13005e-06
0.00788379
3.9737e-05
0.00682653
0.000214235
0.00657822
0.00173827
0.008397
0.00670122
0.00758903
0.00561759
0.00682603
0.00581312
0.00602142
0.00633783
0.00518602
0.00655565
0.00417941
0.00722507
0.00297765
0.00822545
0.00171208
0.00918385
0.0103613
0.0084507
1.32218e-16
0.0084507
-1.14359e-15
0.0084507
1.12329e-15
0.0084507
2.80879e-14
0.0084507
2.25628e-13
0.0084507
2.44919e-12
0.0084507
-3.1357e-11
0.0084507
2.37738e-11
0.0084507
4.25923e-10
0.00845059
4.07736e-09
0.00845022
3.79798e-08
0.00844308
3.57483e-07
0.00840024
3.44069e-06
0.00797753
3.32723e-05
0.00695911
0.000230832
0.00653071
0.00139339
0.00848092
0.00706765
0.00790134
0.00619552
0.0072525
0.00642881
0.00651581
0.0071012
0.00572134
0.0073834
0.00479865
0.00820125
0.00378894
0.00931228
0.00256944
0.0104533
0.0130747
0.0084507
1.15359e-16
0.0084507
9.93942e-16
0.0084507
1.28986e-14
0.0084507
-7.45646e-15
0.0084507
4.85835e-13
0.0084507
2.72153e-13
0.0084507
8.63597e-12
0.0084507
4.23332e-10
0.0084507
-4.35213e-10
0.00845059
7.43289e-09
0.00845043
1.48869e-08
0.00844408
-1.07871e-07
0.00841315
3.31778e-06
0.00810963
-5.03109e-05
0.00715948
0.000248549
0.00653463
0.0012059
0.00838475
0.0074683
0.00811067
0.00647336
0.00772156
0.00682463
0.00709267
0.00776411
0.00630534
0.00821947
0.00539932
0.0091334
0.00441316
0.0103435
0.0027265
0.0121716
0.0163362
0.0084507
2.66985e-17
0.0084507
5.69477e-16
0.0084507
7.90925e-15
0.0084507
-9.83675e-15
0.0084507
2.26498e-13
0.0084507
-1.1101e-12
0.0084507
2.12156e-12
0.0084507
3.80801e-10
0.0084507
2.60849e-12
0.00845065
6.48945e-09
0.00845025
2.99604e-08
0.00844648
-1.35232e-07
0.00841649
3.52886e-06
0.00815528
-5.24601e-05
0.00724889
0.000238665
0.00653152
0.00105947
0.00812255
0.00754877
0.00826443
0.00682117
0.00808117
0.0070673
0.00757231
0.00824177
0.00695495
0.00888609
0.00627252
0.0099195
0.00590405
0.0109165
0.00581366
0.0126469
0.0138974
0.00905854
0.0084507
3.52908e-17
0.0084507
1.117e-16
0.0084507
2.17106e-15
0.0084507
2.01096e-14
0.0084507
-1.51292e-15
0.0084507
1.79522e-12
0.0084507
1.24648e-11
0.0084507
1.66171e-11
0.0084507
4.05826e-10
0.0084507
1.87599e-09
0.00845034
1.74147e-08
0.00844881
2.22933e-07
0.00842821
5.0616e-07
0.00821454
2.03888e-05
0.00737087
0.000189247
0.0066129
0.000890497
0.00754871
0.00754113
0.00808215
0.00742343
0.00796101
0.00725565
0.00791453
0.00827742
0.00763269
0.00914773
0.00728221
0.0102862
0.0074057
0.010864
0.00790938
0.0119156
0.012337
0.010257
0.0084507
9.94755e-18
0.0084507
1.72388e-17
0.0084507
1.0208e-15
0.0084507
6.90244e-15
0.0084507
-4.47502e-14
0.0084507
8.95856e-13
0.0084507
7.97353e-12
0.0084507
8.68349e-12
0.0084507
1.55481e-10
0.00845068
2.15903e-09
0.00845051
6.03633e-09
0.00844907
1.87802e-07
0.00843571
-2.63218e-07
0.00833727
1.3147e-05
0.00769826
0.000127173
0.00690216
0.000631054
0.00757462
0.0066303
0.00846704
0.00867802
0.00802542
0.00763314
0.00796298
0.00833426
0.0080511
0.00908679
0.00822115
0.0101135
0.0085988
0.0106718
0.00914422
0.0113053
0.011382
0.0106849
0.0084507
-5.80048e-18
0.0084507
8.0502e-18
0.0084507
-7.3845e-16
0.0084507
5.54027e-17
0.0084507
6.12071e-14
0.0084507
-3.25733e-13
0.0084507
1.94525e-12
0.0084507
-1.81404e-11
0.0084507
1.89386e-11
0.0084507
1.64625e-09
0.00845058
9.81622e-09
0.0084499
1.20769e-07
0.00843992
9.03413e-07
0.00837887
8.94031e-06
0.00787367
8.33631e-05
0.00703119
0.000399804
0.00773196
0.00489594
0.00915683
0.00997896
0.00858045
0.00822755
0.008331
0.00854125
0.00839865
0.00903128
0.00872751
0.00983678
0.00922527
0.0103594
0.00983401
0.0108288
0.010559
0.0111533
0.0084507
-8.07731e-18
0.0084507
1.25713e-16
0.0084507
9.77246e-16
0.0084507
1.44065e-14
0.0084507
-3.01566e-14
0.0084507
5.37581e-13
0.0084507
2.22136e-13
0.0084507
3.11668e-11
0.0084507
3.10863e-10
0.00845071
-6.14222e-11
0.00845058
1.04677e-08
0.00845041
4.66554e-08
0.00844318
2.77995e-07
0.00840977
6.36108e-06
0.00808837
-3.35703e-05
0.00715792
0.00038659
0.0076422
0.00323323
0.00994503
0.0104475
0.00940518
0.00889147
0.00904685
0.00902152
0.00888341
0.00921858
0.00906637
0.00967948
0.00956538
0.00997519
0.0102367
0.0102385
0.00992294
0.0112452
0.0084507
-1.04626e-17
0.0084507
3.17129e-17
0.0084507
2.07489e-16
0.0084507
7.35631e-15
0.0084507
-4.70899e-14
0.0084507
4.14665e-13
0.0084507
-1.11782e-12
0.0084507
1.68364e-11
0.0084507
2.0861e-10
0.0084507
3.7686e-11
0.00845065
8.75767e-09
0.00845028
4.28094e-08
0.0084468
1.25824e-07
0.00841905
5.17241e-06
0.00818763
-5.08636e-05
0.00734196
0.000336938
0.00735655
0.00203225
0.0100135
0.00926537
0.0101935
0.00972121
0.00986919
0.00958398
0.00955083
0.00952711
0.00951716
0.00966323
0.00982271
0.0097426
0.0103644
0.00979937
0.00949348
0.0110881
0.0084507
1.13841e-18
0.0084507
3.26616e-17
0.0084507
1.57074e-16
0.0084507
4.50879e-15
0.0084507
2.04164e-14
0.0084507
4.13627e-14
0.0084507
1.12624e-12
0.0084507
4.05088e-12
0.0084507
1.32843e-10
0.0084507
5.63477e-10
0.00845071
2.2384e-09
0.00845038
3.51909e-08
0.00845003
2.17269e-07
0.00843308
2.51389e-06
0.00828785
1.96317e-05
0.00761842
0.000192399
0.00724917
0.0012062
0.00897533
0.00751305
0.0103291
0.0104018
0.0100902
0.00987686
0.00993283
0.00961409
0.00991063
0.00965506
0.0101192
0.0096031
0.0104747
0.0095457
0.0091923
0.0110049
0.0084507
4.60786e-19
0.0084507
4.74338e-17
0.0084507
3.18701e-16
0.0084507
1.60188e-15
0.0084507
2.00223e-14
0.0084507
2.74412e-14
0.0084507
1.31423e-12
0.0084507
5.24106e-12
0.0084507
3.74908e-11
0.0084507
4.35553e-10
0.0084507
-4.5032e-11
0.00845055
1.49081e-08
0.00845017
7.10757e-08
0.00844118
8.11942e-07
0.00839326
9.59942e-06
0.007996
2.83357e-05
0.00731643
0.000779492
0.00849987
0.00513576
0.0108731
0.0109086
0.0106433
0.010109
0.0105775
0.00984945
0.0104993
0.00974532
0.0105672
0.00961301
0.0107706
0.00944776
0.00899679
0.0111263
0.0084507
-4.87891e-19
0.0084507
2.36356e-17
0.0084507
7.77644e-17
0.0084507
2.2359e-16
0.0084507
2.00583e-15
0.0084507
1.04395e-14
0.0084507
4.89708e-13
0.0084507
2.41072e-12
0.0084507
4.29467e-12
0.0084507
1.20486e-10
0.0084507
3.95252e-10
0.00845064
6.06989e-09
0.00845014
6.84202e-08
0.00844578
2.80688e-07
0.00841041
6.99953e-06
0.0081421
-1.30401e-05
0.00739512
0.000495963
0.00815747
0.00307012
0.0112495
0.00987488
0.0114697
0.0106613
0.0112587
0.0103238
0.0110605
0.009995
0.011002
0.00971179
0.0110773
0.00942949
0.00896488
0.0112577
0.0084507
2.6563e-18
0.0084507
2.19551e-18
0.0084507
7.6897e-17
0.0084507
3.25965e-16
0.0084507
6.18112e-15
0.0084507
4.07994e-14
0.0084507
4.05408e-14
0.0084507
2.25338e-12
0.0084507
2.71373e-12
0.0084507
1.34249e-10
0.0084507
1.00726e-09
0.00845071
1.98679e-09
0.00845028
5.00611e-08
0.0084498
2.58079e-07
0.00842801
2.92496e-06
0.00827311
3.93826e-05
0.0078428
-8.72567e-05
0.00798827
0.00174343
0.0103002
0.00798702
0.0118089
0.011227
0.0116392
0.0107578
0.0114325
0.010148
0.0113364
0.00978819
0.011356
0.00944559
0.00896164
0.0114703
0.0084507
1.87025e-18
0.0084507
-7.86047e-19
0.0084507
1.75099e-17
0.0084507
7.23976e-17
0.0084507
3.40881e-15
0.0084507
1.81141e-14
0.0084507
2.58275e-14
0.0084507
9.27604e-13
0.0084507
-1.89129e-12
0.0084507
6.93577e-11
0.0084507
5.47228e-10
0.00845069
8.22523e-10
0.00845059
1.7452e-08
0.00844973
6.87336e-08
0.00844253
1.09708e-06
0.00838591
2.35905e-05
0.00802916
-0.000214328
0.00742357
0.00109125
0.00896957
0.0051932
0.0119082
0.0110936
0.0118691
0.0108947
0.011868
0.0103759
0.01174
0.00996028
0.011686
0.00953074
0.00902241
0.0117124
0.0084507
7.31836e-19
0.0084507
1.54499e-18
0.0084507
3.07371e-17
0.0084507
2.12395e-16
0.0084507
9.66837e-17
0.0084507
1.33383e-14
0.0084507
2.78255e-14
0.0084507
5.74299e-13
0.0084507
1.10825e-11
0.0084507
3.71084e-12
0.0084507
3.55695e-10
0.0084507
1.03392e-09
0.00845052
1.93614e-08
0.00845062
1.48175e-07
0.00845142
4.23542e-07
0.00841348
6.41573e-06
0.0080715
5.81304e-05
0.00769317
-4.02256e-05
0.00875584
0.00308009
0.0119888
0.00933843
0.0127313
0.0113802
0.0124855
0.010898
0.0122797
0.0102061
0.0121344
0.00971376
0.00918302
0.0120436
0.0084507
3.79471e-19
0.0084507
2.98156e-19
0.0084507
1.37965e-17
0.0084507
1.08176e-16
0.0084507
-4.5672e-17
0.0084507
6.9554e-15
0.0084507
-1.50607e-15
0.0084507
1.72736e-13
0.0084507
8.22124e-12
0.0084507
-2.93687e-12
0.0084507
1.85314e-10
0.0084507
2.55045e-10
0.00845069
7.94713e-09
0.00845054
7.61848e-08
0.00844924
1.09282e-07
0.00843892
2.15124e-06
0.00835682
3.33948e-05
0.00797355
-0.000304314
0.0078444
0.00176642
0.0100245
0.00678169
0.0126331
0.0114437
0.0125601
0.0110025
0.0125848
0.0103461
0.0124698
0.00989604
0.00934995
0.0123748
0.0084507
8.13152e-20
0.0084507
1.35525e-19
0.0084507
3.30682e-18
0.0084507
1.46367e-17
0.0084507
1.8754e-16
0.0084507
1.48636e-15
0.0084507
1.83492e-14
0.0084507
8.11365e-14
0.0084507
1.27251e-12
0.0084507
1.08593e-11
0.0084507
2.3609e-11
0.0084507
5.09529e-10
0.0084507
1.92164e-09
0.00845051
2.95382e-08
0.00845067
2.06266e-07
0.00845222
7.17803e-07
0.00840659
9.18972e-06
0.0079975
6.99275e-05
0.00775229
0.000234293
0.00936614
0.0040303
0.0128146
0.0100747
0.0133305
0.011378
0.0131224
0.010831
0.0129146
0.0101475
0.00957388
0.0127465
0.0084507
-1.0842e-19
0.0084507
2.1684e-19
0.0084507
1.00289e-18
0.0084507
-8.13152e-19
0.0084507
-1.17636e-17
0.0084507
7.62628e-16
0.0084507
3.7924e-15
0.0084507
2.90808e-14
0.0084507
3.81781e-13
0.0084507
5.43498e-12
0.0084507
2.92553e-12
0.0084507
2.519e-10
0.0084507
3.81687e-10
0.00845068
1.1235e-08
0.00845049
1.02046e-07
0.00844889
1.51023e-07
0.00843567
2.70252e-06
0.00833857
3.3768e-05
0.00799327
-0.00021557
0.00842468
0.00203621
0.011275
0.00743694
0.0134812
0.0115321
0.0133389
0.0111177
0.0132726
0.0103417
0.00981991
0.0131061
0.0084507
-2.98156e-19
0.0084507
-3.79471e-19
0.0084507
9.21572e-19
0.0084507
3.60497e-18
0.0084507
4.83283e-17
0.0084507
1.79164e-16
0.0084507
2.98218e-15
0.0084507
1.31719e-14
0.0084507
1.39156e-13
0.0084507
1.4942e-12
0.0084507
1.40007e-11
0.0084507
3.63581e-11
0.0084507
6.80006e-10
0.0084507
2.85815e-09
0.00845047
3.99758e-08
0.00845069
2.44997e-07
0.00845227
1.15771e-06
0.00840274
1.08683e-05
0.00800498
9.08885e-05
0.00779986
0.000364392
0.00967611
0.00448311
0.0133765
0.0101816
0.0138705
0.0113485
0.0136803
0.0108204
0.0100979
0.0134639
0.0084507
3.25261e-19
0.0084507
2.98156e-19
0.0084507
1.70762e-18
0.0084507
1.73472e-18
0.0084507
1.58294e-17
0.0084507
7.64905e-17
0.0084507
6.59737e-16
0.0084507
7.10209e-15
0.0084507
3.64387e-14
0.0084507
5.33445e-13
0.0084507
7.6777e-12
0.0084507
7.83006e-12
0.0084507
3.04987e-10
0.0084507
6.8415e-10
0.00845068
1.46098e-08
0.00845047
1.13278e-07
0.00844883
3.0106e-07
0.008435
2.47752e-06
0.00834391
3.70636e-05
0.00805257
-0.000215776
0.0086833
0.00229339
0.011772
0.00755388
0.0139384
0.0114111
0.0138221
0.0110772
0.0102748
0.0137819
0.0084507
7.31836e-19
0.0084507
1.38236e-18
0.0084507
1.40946e-18
0.0084507
9.21572e-19
0.0084507
9.54098e-18
0.0084507
2.67256e-17
0.0084507
5.47278e-16
0.0084507
2.49751e-15
0.0084507
3.35806e-14
0.0084507
2.39804e-13
0.0084507
9.32878e-13
0.0084507
1.12301e-11
0.0084507
5.37341e-11
0.0084507
6.85081e-10
0.0084507
3.61709e-09
0.0084505
4.31353e-08
0.00845084
2.39464e-07
0.00845204
1.37719e-06
0.008407
4.65029e-06
0.00804384
9.11927e-05
0.00779561
0.000627508
0.00978343
0.00446852
0.0136166
0.0098263
0.0142515
0.0112125
0.0107508
0.0140742
0.0084507
-1.89735e-19
0.0084507
-1.0842e-18
0.0084507
-1.49078e-18
0.0084507
-2.49366e-18
0.0084507
4.87891e-19
0.0084507
4.09286e-18
0.0084507
1.78107e-16
0.0084507
8.60043e-16
0.0084507
1.13606e-14
0.0084507
1.03188e-13
0.0084507
3.35416e-13
0.0084507
4.34558e-12
0.0084507
1.64954e-11
0.0084507
2.60957e-10
0.0084507
1.06736e-09
0.00845068
1.2732e-08
0.00845048
9.00583e-08
0.0084491
4.43877e-07
0.00843631
-4.76798e-06
0.00836712
2.95562e-05
0.00812588
-5.28692e-05
0.00884863
0.00220645
0.0118906
0.00718011
0.0142905
0.0110846
0.0108982
0.0142083
0.0084507
2.71051e-19
0.0084507
-6.50521e-19
0.0084507
-8.94467e-19
0.0084507
-1.24683e-18
0.0084507
-1.16552e-18
0.0084507
1.76183e-18
0.0084507
6.97142e-17
0.0084507
3.89256e-16
0.0084507
4.86582e-15
0.0084507
2.76122e-14
0.0084507
1.18481e-13
0.0084507
1.16463e-12
0.0084507
7.22587e-12
0.0084507
7.37514e-11
0.0084507
4.79817e-10
0.0084507
9.71646e-10
0.0084507
2.62947e-08
0.00845103
2.01069e-07
0.00844516
9.88286e-07
0.00840643
7.43867e-07
0.0081444
9.61768e-05
0.00782819
0.000789411
0.00984278
0.00403517
0.0138114
0.00910721
0.0109823
0.0147129
0.0084507
1.6263e-19
0.0084507
-2.71051e-20
0.0084507
2.71051e-19
0.0084507
9.21572e-19
0.0084507
4.06576e-19
0.0084507
-8.13152e-20
0.0084507
2.10335e-17
0.0084507
1.33547e-16
0.0084507
1.74462e-15
0.0084507
1.27837e-14
0.0084507
2.18112e-14
0.0084507
2.24498e-13
0.0084507
1.02158e-12
0.0084507
2.0549e-11
0.0084507
8.80229e-11
0.0084507
1.14865e-09
0.0084507
7.61416e-09
0.0084505
7.02605e-08
0.00844973
1.17703e-07
0.00843931
-8.10425e-06
0.00839726
2.7865e-05
0.00821791
9.4905e-05
0.00879336
0.00194524
0.0115901
0.00639577
0.0103915
0.0145152
0.0084507
-2.43945e-19
0.0084507
-6.23416e-19
0.0084507
9.62965e-35
0.0084507
2.43945e-19
0.0084507
4.33681e-19
0.0084507
3.79471e-19
0.0084507
3.27971e-18
0.0084507
4.23652e-17
0.0084507
2.72487e-16
0.0084507
2.87259e-15
0.0084507
9.76183e-15
0.0084507
7.91505e-14
0.0084507
1.1478e-13
0.0084507
5.30623e-12
0.0084507
2.45563e-11
0.0084507
1.72362e-10
0.00845071
1.85604e-09
0.00845081
1.04283e-08
0.00845085
1.48992e-07
0.00844199
6.03602e-07
0.00841282
6.32992e-06
0.00826437
8.49053e-05
0.0078461
0.000878501
0.00960103
0.00336824
0.0078611
0.0135558
0.0084507
-6.50521e-19
0.0084507
-4.60786e-19
0.0084507
-1.13841e-18
0.0084507
-1.54499e-18
0.0084507
-1.84314e-18
0.0084507
-1.81604e-18
0.0084507
-2.41235e-18
0.0084507
1.23057e-17
0.0084507
1.92988e-17
0.0084507
8.0952e-16
0.0084507
2.31678e-15
0.0084507
2.76185e-14
0.0084507
1.36372e-13
0.0084507
7.37967e-13
0.0084507
6.33023e-12
0.0084507
4.19791e-11
0.0084507
8.61298e-10
0.00845068
-5.80637e-10
0.00845052
7.53969e-08
0.00844944
-1.1371e-08
0.00844097
-8.79742e-07
0.00841072
1.57579e-05
0.00828563
0.000233036
0.00929571
0.000577498
0.00546787
0.0116599
0.0084507
-4.87891e-19
0.0084507
4.33681e-19
0.0084507
-1.89735e-19
0.0084507
-3.79471e-19
0.0084507
-7.86047e-19
0.0084507
-9.75782e-19
0.0084507
-8.67362e-19
0.0084507
3.71339e-18
0.0084507
-1.06523e-17
0.0084507
2.17139e-16
0.0084507
2.66605e-16
0.0084507
1.17429e-14
0.0084507
2.97872e-14
0.0084507
6.91978e-14
0.0084507
3.28286e-12
0.0084507
1.91796e-11
0.0084507
3.09514e-10
0.0084507
1.8067e-09
0.00845072
1.48953e-08
0.00845027
1.33931e-07
0.00844692
1.10591e-06
0.00843473
4.34647e-07
0.00839714
9.14642e-05
0.00828511
-0.000370599
0.00287711
0.00957576
0.0084507
-1.0842e-19
0.0084507
3.79471e-19
0.0084507
9.48677e-19
0.0084507
6.77626e-19
0.0084507
1.0571e-18
0.0084507
9.21572e-19
0.0084507
1.97867e-18
0.0084507
3.06287e-18
0.0084507
8.13152e-18
0.0084507
9.27264e-17
0.0084507
5.43863e-16
0.0084507
2.38392e-15
0.0084507
2.50913e-14
0.0084507
1.63591e-13
0.0084507
5.60445e-13
0.0084507
6.81209e-12
0.0084507
-3.99228e-11
0.0084507
9.03921e-10
0.00845071
3.46432e-09
0.00845057
4.17395e-08
0.00845053
2.10908e-07
0.00843593
2.72668e-06
0.00852194
1.89127e-05
0.00806237
8.73705e-05
0.00101734
0.00784625
0.0084507
4.60786e-19
0.0084507
2.1684e-19
0.0084507
2.98156e-19
0.0084507
9.21572e-19
0.0084507
1.35525e-18
0.0084507
1.38236e-18
0.0084507
2.57498e-18
0.0084507
3.36103e-18
0.0084507
7.67073e-18
0.0084507
3.46403e-17
0.0084507
2.94415e-16
0.0084507
6.23498e-16
0.0084507
8.25002e-15
0.0084507
5.96203e-14
0.0084507
-4.73275e-13
0.0084507
6.19233e-12
0.0084507
-9.62866e-11
0.0084507
4.37131e-10
0.0084507
9.93577e-10
0.00845071
1.03178e-08
0.00845047
1.0335e-07
0.00845093
7.45126e-07
0.00844202
6.93232e-06
0.0084215
1.69958e-05
0.000224674
0.00834906
0.0084507
1.0842e-19
0.0084507
3.79471e-19
0.0084507
-8.13152e-20
0.0084507
4.60786e-19
0.0084507
4.06576e-19
0.0084507
1.0571e-18
0.0084507
1.40946e-18
0.0084507
1.38236e-18
0.0084507
3.30682e-18
0.0084507
5.66496e-18
0.0084507
7.03105e-17
0.0084507
3.6909e-16
0.0084507
1.40873e-15
0.0084507
2.65029e-14
0.0084507
1.79879e-13
0.0084507
1.42488e-12
0.0084507
6.28929e-12
0.0084507
6.97468e-11
0.0084507
4.54711e-10
0.0084507
3.04905e-11
0.00845069
2.74421e-08
0.00845071
2.85813e-08
0.00845333
8.71877e-07
0.00843673
9.83873e-06
7.70533e-05
0.00844437
0.0084507
-2.43945e-19
0.0084507
8.13152e-20
0.0084507
2.71051e-20
0.0084507
6.50521e-19
0.0084507
7.31836e-19
0.0084507
1.16552e-18
0.0084507
8.13152e-19
0.0084507
7.58942e-19
0.0084507
2.22261e-18
0.0084507
3.52366e-19
0.0084507
1.5992e-18
0.0084507
1.42817e-16
0.0084507
7.00151e-16
0.0084507
9.59034e-15
0.0084507
5.57683e-14
0.0084507
5.64425e-13
0.0084507
1.56128e-12
0.0084507
1.87647e-11
0.0084507
1.03356e-10
0.0084507
9.80069e-10
0.00845069
4.18399e-09
0.00845059
5.30208e-08
0.00845053
-1.69219e-07
0.00844558
1.76135e-06
1.47854e-05
0.00848911
0.0084507
4.06576e-19
0.0084507
6.50521e-19
0.0084507
9.21572e-19
0.0084507
4.87891e-19
0.0084507
1.35525e-19
0.0084507
-4.33681e-19
0.0084507
-1.11131e-18
0.0084507
-1.30104e-18
0.0084507
-1.57209e-18
0.0084507
-2.76472e-18
0.0084507
5.28549e-18
0.0084507
2.70779e-17
0.0084507
2.31531e-16
0.0084507
2.32621e-15
0.0084507
1.73482e-14
0.0084507
1.42545e-13
0.0084507
6.30275e-13
0.0084507
4.02708e-12
0.0084507
2.37586e-11
0.0084507
1.82463e-10
0.0084507
1.62586e-09
0.00845072
1.11038e-08
0.00845028
6.70854e-08
0.00845046
-5.08283e-08
5.32227e-06
0.00844179
0.0084507
1.0842e-19
0.0084507
1.89735e-19
0.0084507
4.60786e-19
0.0084507
-4.33681e-19
0.0084507
-4.60786e-19
0.0084507
-1.40946e-18
0.0084507
-1.68051e-18
0.0084507
-1.5992e-18
0.0084507
-1.24683e-18
0.0084507
-8.40257e-19
0.0084507
1.46367e-18
0.0084507
6.451e-18
0.0084507
1.28424e-16
0.0084507
6.22657e-16
0.0084507
5.23128e-15
0.0084507
4.58331e-14
0.0084507
2.80881e-13
0.0084507
1.21711e-12
0.0084507
1.0522e-11
0.0084507
5.78635e-11
0.0084507
1.93073e-10
0.0084507
3.15e-09
0.00845067
1.00128e-08
0.00845039
1.42959e-07
1.19169e-06
0.00844978
0.0084507
-3.79471e-19
0.0084507
-6.50521e-19
0.0084507
-5.42101e-19
0.0084507
-1.35525e-19
0.0084507
1.89735e-19
0.0084507
3.25261e-19
0.0084507
3.52366e-19
0.0084507
0
0.0084507
3.25261e-19
0.0084507
4.06576e-19
0.0084507
7.04731e-19
0.0084507
3.57787e-18
0.0084507
4.78675e-17
0.0084507
1.99629e-16
0.0084507
2.29002e-15
0.0084507
1.72352e-14
0.0084507
1.14504e-13
0.0084507
1.64067e-13
0.0084507
1.56686e-12
0.0084507
2.28991e-11
0.0084507
3.72948e-11
0.0084507
1.68192e-09
0.00845071
-5.09885e-09
0.00845057
6.35172e-08
3.84649e-07
0.00845064
0.0084507
4.06576e-19
0.0084507
4.60786e-19
0.0084507
5.96311e-19
0.0084507
7.58942e-19
0.0084507
7.86047e-19
0.0084507
7.58942e-19
0.0084507
7.04731e-19
0.0084507
7.86047e-19
0.0084507
8.67362e-19
0.0084507
-1.89735e-19
0.0084507
-2.1684e-19
0.0084507
-1.6263e-19
0.0084507
1.17636e-17
0.0084507
4.69188e-17
0.0084507
7.3723e-16
0.0084507
3.04238e-15
0.0084507
3.4241e-14
0.0084507
9.54245e-14
0.0084507
1.19406e-12
0.0084507
6.02405e-12
0.0084507
1.54469e-11
0.0084507
7.76565e-10
0.0084507
-9.52124e-09
0.00845072
1.01771e-08
1.00725e-07
0.00845067
0.0084507
1.0842e-19
0.0084507
-1.0842e-19
0.0084507
-5.14996e-19
0.0084507
-1.32815e-18
0.0084507
-9.75782e-19
0.0084507
-9.75782e-19
0.0084507
-3.52366e-19
0.0084507
-1.6263e-19
0.0084507
2.1684e-19
0.0084507
5.96311e-19
0.0084507
6.23416e-19
0.0084507
5.96311e-19
0.0084507
4.96022e-18
0.0084507
1.8323e-17
0.0084507
1.69136e-16
0.0084507
1.24404e-15
0.0084507
1.06937e-14
0.0084507
2.30594e-14
0.0084507
3.4211e-13
0.0084507
1.24186e-12
0.0084507
-9.84057e-13
0.0084507
5.83539e-11
0.0084507
1.1162e-10
0.0084507
-4.04139e-09
2.48405e-08
0.0084507
0.0084507
-4.06576e-19
0.0084507
-9.75782e-19
0.0084507
-8.40257e-19
0.0084507
-1.32815e-18
0.0084507
-1.43657e-18
0.0084507
-1.54499e-18
0.0084507
-1.16552e-18
0.0084507
-2.27682e-18
0.0084507
-2.33103e-18
0.0084507
-1.87025e-18
0.0084507
-1.78893e-18
0.0084507
-1.92446e-18
0.0084507
-1.57209e-18
0.0084507
3.11708e-18
0.0084507
2.35001e-17
0.0084507
5.18005e-16
0.0084507
2.99514e-15
0.0084507
2.61997e-15
0.0084507
9.65655e-14
0.0084507
4.14468e-13
0.0084507
-1.77695e-14
0.0084507
1.66323e-11
0.0084507
-8.58045e-11
0.0084507
3.91205e-10
4.35627e-09
0.00845068
0.0084507
-1.35525e-19
0.0084507
-2.71051e-19
0.0084507
-1.6263e-19
0.0084507
-2.71051e-20
0.0084507
1.0842e-19
0.0084507
-3.79471e-19
0.0084507
-1.89735e-19
0.0084507
-1.02999e-18
0.0084507
-1.16552e-18
0.0084507
-1.89735e-18
0.0084507
-2.22261e-18
0.0084507
-2.1413e-18
0.0084507
-2.24972e-18
0.0084507
-8.67362e-19
0.0084507
1.33086e-17
0.0084507
9.04496e-17
0.0084507
6.62881e-16
0.0084507
1.02734e-15
0.0084507
2.09144e-14
0.0084507
8.11295e-14
0.0084507
3.45883e-13
0.0084507
-9.2755e-13
0.0084507
2.83028e-11
0.0084507
2.09004e-10
1.51223e-09
0.0084507
0.0084507
2.43945e-19
0.0084507
1.89735e-19
0.0084507
1.6263e-19
0.0084507
1.35525e-19
0.0084507
1.89735e-19
0.0084507
-5.96311e-19
0.0084507
-9.48677e-19
0.0084507
-1.24683e-18
0.0084507
-1.5992e-18
0.0084507
-1.97867e-18
0.0084507
-2.05998e-18
0.0084507
-2.38524e-18
0.0084507
-1.92446e-18
0.0084507
-1.43657e-18
0.0084507
9.48677e-19
0.0084507
1.71033e-17
0.0084507
7.43492e-17
0.0084507
5.42101e-16
0.0084507
9.361e-16
0.0084507
1.23103e-14
0.0084507
2.73172e-13
0.0084507
-4.50722e-12
0.0084507
1.87608e-11
0.0084507
8.08494e-11
4.63797e-10
0.0084507
0.0084507
1.89735e-19
0.0084507
5.96311e-19
0.0084507
5.42101e-19
0.0084507
5.42101e-19
0.0084507
7.31836e-19
0.0084507
2.71051e-19
0.0084507
-3.79471e-19
0.0084507
-5.69206e-19
0.0084507
-8.40257e-19
0.0084507
-8.40257e-19
0.0084507
-1.24683e-18
0.0084507
-1.43657e-18
0.0084507
-2.05998e-18
0.0084507
-3.11708e-18
0.0084507
-2.6834e-18
0.0084507
-5.69206e-19
0.0084507
7.378e-17
0.0084507
1.01346e-16
0.0084507
2.89319e-15
0.0084507
4.83665e-15
0.0084507
1.4867e-13
0.0084507
5.89696e-13
0.0084507
-2.83383e-12
0.0084507
3.40977e-11
-8.09986e-11
0.0084507
0.0084507
7.52316e-36
0.0084507
2.43945e-19
0.0084507
1.89735e-19
0.0084507
5.42101e-20
0.0084507
1.0842e-19
0.0084507
2.71051e-20
0.0084507
5.42101e-19
0.0084507
8.40257e-19
0.0084507
7.04731e-19
0.0084507
-5.42101e-20
0.0084507
-6.23416e-19
0.0084507
-1.32815e-18
0.0084507
-2.24972e-18
0.0084507
-2.98156e-18
0.0084507
-4.17418e-18
0.0084507
-3.41524e-18
0.0084507
-3.21737e-17
0.0084507
7.67615e-17
0.0084507
-1.96701e-15
0.0084507
-5.26936e-15
0.0084507
2.21712e-13
0.0084507
-6.05434e-13
0.0084507
7.58577e-12
0.0084507
-1.33716e-11
2.8153e-10
0.0084507
0.0084507
-3.52366e-19
0.0084507
-7.58942e-19
0.0084507
-1.68051e-18
0.0084507
-2.03288e-18
0.0084507
-2.41235e-18
0.0084507
-2.62919e-18
0.0084507
-2.11419e-18
0.0084507
-2.24972e-18
0.0084507
-1.92446e-18
0.0084507
-1.6263e-18
0.0084507
-1.0842e-18
0.0084507
-8.94467e-19
0.0084507
-5.42101e-19
0.0084507
-5.14996e-19
0.0084507
-7.04731e-19
0.0084507
-9.73071e-18
0.0084507
-5.31259e-17
0.0084507
1.8117e-16
0.0084507
-2.49654e-15
0.0084507
1.86187e-15
0.0084507
2.06446e-13
0.0084507
-8.11008e-13
0.0084507
-4.16663e-13
0.0084507
9.9113e-12
-2.23553e-12
0.0084507
0.0084507
0.0084507
0.0084507
0.0084507
0.0084507
0.0084507
0.0084507
0.0084507
0.0084507
0.0084507
0.0084507
0.0084507
0.0084507
0.0084507
0.0084507
0.0084507
0.0084507
0.0084507
0.0084507
0.0084507
0.0084507
0.0084507
0.0084507
0.0084507
0.0084507
0.00297817
0.00465875
-0.00017084
0.00314691
-0.00167655
0.00150489
-0.00193564
0.000258659
-0.00192752
-7.22828e-06
-0.00197013
0.000100999
-0.00246025
0.000551009
-0.00298321
0.000457602
-0.00331888
0.000284402
-0.00345969
0.000140492
-0.0034914
3.25536e-05
-0.0034821
-6.87874e-06
-0.00347203
1.14181e-05
-0.00344167
1.87865e-05
-0.00346349
5.95963e-06
-0.00354056
3.70051e-05
-0.00360701
4.82182e-05
-0.00363804
3.06213e-05
-0.00365
1.3363e-05
-0.00365089
5.59431e-06
-0.00365033
6.19975e-06
-0.00365143
1.01735e-05
-0.00365325
7.85311e-06
-0.00366099
3.06851e-06
-0.00366906
-4.16744e-06
-0.00367593
-1.74908e-06
-0.00367709
-6.91484e-06
-0.00368591
-2.82429e-06
-0.00368016
-7.18835e-06
-0.00369806
3.10091e-06
-0.00370813
-7.88985e-06
-0.00372528
-5.69041e-06
-0.00374204
-9.20009e-06
-0.00371346
-3.09295e-05
-0.00365417
-5.08858e-05
-0.00361098
-5.57748e-05
-0.00351642
-9.29322e-05
-0.0033802
-0.000129861
-0.00323624
-0.000138161
-0.00306033
-0.00017299
-0.00281911
-0.00021272
-0.00253441
-0.000267548
-0.00224576
-0.000271905
-0.00191923
-0.000308261
-0.00163484
-0.000278378
-0.0013083
-0.000320946
-0.000898204
-0.000399166
-0.000504414
-0.000385259
-8.79854e-05
-0.000411944
0.000321534
-0.00041249
0.00069053
-0.000371762
0.00105049
-0.000362659
0.00139789
-0.000348127
0.00172778
-0.000332753
0.00203793
-0.000311769
0.0023303
-0.000293159
0.00259828
-0.000271084
0.00284022
-0.000245727
0.0030619
-0.00022461
0.0032676
-0.000206897
0.00345751
-0.000190897
0.00363131
-0.000175192
0.00379021
-0.000160469
0.00393539
-0.000146404
0.00406796
-0.000133722
0.00418874
-0.000121629
0.00429935
-0.0001112
0.00440077
-0.000101534
0.00449464
-9.3396e-05
0.00458125
-8.57443e-05
0.00466244
-7.97271e-05
0.00473801
-7.39804e-05
0.00480919
-6.92919e-05
0.00487537
-6.43673e-05
0.00493647
-5.97019e-05
0.00499194
-5.43726e-05