/*--------------------------------*- C++ -*----------------------------------*\
| =========                 |                                                 |
| \\      /  F ield         | OpenFOAM: The Open Source CFD Toolbox           |
|  \\    /   O peration     | Version:  v2106                                 |
|   \\  /    A nd           | Website:  www.openfoam.com                      |
|    \\/     M anipulation  |                                                 |
\*---------------------------------------------------------------------------*/
FoamFile
{
    version     2.0;
    format      ascii;
    arch        "LSB;label=32;scalar=64";
    class       volScalarField;
    location    "9";
    object      psi;
}
// * * * * * * * * * * * * * * * * * * * * * * * * * * * * * * * * * * * * * //

dimensions      [0 -2 2 0 0 0 0];

internalField   nonuniform List<scalar> 
5250
(
1.40845
1.40845
1.40845
1.40845
1.40845
1.40845
1.40845
1.40845
1.40844
1.40832
1.40727
1.39809
1.32698
1.05313
0.685153
0.479321
0.585968
0.608055
0.59653
0.597357
0.596165
0.593775
0.593418
0.594709
0.592366
1.40845
1.40845
1.40845
1.40845
1.40845
1.40845
1.40845
1.40845
1.40844
1.40832
1.4073
1.39841
1.32905
1.05803
0.689606
0.477303
0.588238
0.610216
0.598189
0.598647
0.5973
0.594768
0.594353
0.595579
0.593023
1.40845
1.40845
1.40845
1.40845
1.40845
1.40845
1.40845
1.40845
1.40844
1.40833
1.40738
1.3991
1.33369
1.06937
0.699833
0.469772
0.590213
0.612994
0.600614
0.601168
0.599684
0.596821
0.596387
0.597659
0.595023
1.40845
1.40845
1.40845
1.40845
1.40845
1.40845
1.40845
1.40845
1.40844
1.40834
1.40747
1.39999
1.34016
1.08611
0.714997
0.460033
0.586724
0.611851
0.600281
0.602001
0.601191
0.598992
0.598902
0.600261
0.597537
1.40845
1.40845
1.40845
1.40845
1.40845
1.40845
1.40845
1.40845
1.40844
1.40836
1.40758
1.40106
1.34827
1.10896
0.735432
0.45768
0.578519
0.607403
0.597682
0.601127
0.601542
0.60115
0.601576
0.603292
0.60076
1.40845
1.40845
1.40845
1.40845
1.40845
1.40845
1.40845
1.40845
1.40844
1.40838
1.40778
1.40263
1.35721
1.13602
0.760712
0.453714
0.566659
0.59965
0.592792
0.598224
0.600764
0.601933
0.604065
0.607448
0.605428
1.40845
1.40845
1.40845
1.40845
1.40845
1.40845
1.40845
1.40845
1.40844
1.4084
1.40795
1.4039
1.36603
1.16637
0.79325
0.447888
0.549961
0.587557
0.585281
0.593262
0.59916
0.603517
0.608657
0.612255
0.611714
1.40845
1.40845
1.40845
1.40845
1.40845
1.40845
1.40845
1.40845
1.40845
1.4084
1.40801
1.40448
1.37289
1.19317
0.828327
0.454443
0.545227
0.577355
0.57737
0.586706
0.595828
0.603891
0.611284
0.619365
0.622298
1.40845
1.40845
1.40845
1.40845
1.40845
1.40845
1.40845
1.40845
1.40845
1.40841
1.4081
1.40532
1.38008
1.22421
0.868841
0.470618
0.550091
0.567383
0.568537
0.576482
0.589209
0.603469
0.618535
0.626915
0.639751
1.40845
1.40845
1.40845
1.40845
1.40845
1.40845
1.40845
1.40845
1.40845
1.40842
1.40816
1.40587
1.38508
1.2497
0.915032
0.495293
0.566946
0.567308
0.569042
0.574604
0.584606
0.599726
0.621007
0.636833
0.683522
1.40845
1.40845
1.40845
1.40845
1.40845
1.40845
1.40845
1.40845
1.40845
1.40843
1.40823
1.40652
1.39121
1.28659
0.968375
0.522565
0.559484
0.580216
0.579049
0.57746
0.584843
0.601311
0.630064
0.671641
0.783454
1.40845
1.40845
1.40845
1.40845
1.40845
1.40845
1.40845
1.40845
1.40845
1.40844
1.40833
1.40731
1.39798
1.32402
1.0277
0.560713
0.545618
0.596612
0.595469
0.58671
0.587804
0.600358
0.627728
0.66655
0.814675
1.40845
1.40845
1.40845
1.40845
1.40845
1.40845
1.40845
1.40845
1.40845
1.40844
1.40836
1.40761
1.40131
1.3491
1.11062
0.723073
0.522565
0.625745
0.618004
0.602287
0.596393
0.603106
0.628089
0.659765
0.79595
1.40845
1.40845
1.40845
1.40845
1.40845
1.40845
1.40845
1.40845
1.40845
1.40844
1.4084
1.40797
1.40412
1.36891
1.17651
0.804878
0.489957
0.622151
0.631336
0.621144
0.60923
0.612101
0.631194
0.660742
0.764004
1.40845
1.40845
1.40845
1.40845
1.40845
1.40845
1.40845
1.40845
1.40845
1.40845
1.40842
1.40811
1.40546
1.3815
1.23306
0.888844
0.488907
0.614919
0.629274
0.63516
0.627251
0.625826
0.637434
0.660634
0.725236
1.40845
1.40845
1.40845
1.40845
1.40845
1.40845
1.40845
1.40845
1.40845
1.40845
1.40843
1.40824
1.40659
1.39207
1.29366
0.978477
0.512542
0.5752
0.638155
0.659997
0.65426
0.643714
0.648384
0.664517
0.706319
1.40845
1.40845
1.40845
1.40845
1.40845
1.40845
1.40845
1.40845
1.40845
1.40845
1.40844
1.40837
1.40766
1.4015
1.34899
1.08361
0.604805
0.53226
0.62981
0.659358
0.659132
0.656631
0.660864
0.672756
0.703118
1.40845
1.40845
1.40845
1.40845
1.40845
1.40845
1.40845
1.40845
1.40845
1.40845
1.40844
1.40839
1.40794
1.40401
1.3701
1.1818
0.80814
0.497289
0.624636
0.642979
0.664735
0.666999
0.673042
0.683908
0.706118
1.40845
1.40845
1.40845
1.40845
1.40845
1.40845
1.40845
1.40845
1.40845
1.40845
1.40845
1.40842
1.40816
1.40597
1.38719
1.26648
0.929026
0.506594
0.597457
0.642168
0.672536
0.679634
0.687293
0.697483
0.714921
1.40845
1.40845
1.40845
1.40845
1.40845
1.40845
1.40845
1.40845
1.40845
1.40845
1.40845
1.40844
1.40834
1.40737
1.39905
1.33052
1.03889
0.557959
0.55995
0.64226
0.68156
0.685376
0.691556
0.702163
0.719717
1.40845
1.40845
1.40845
1.40845
1.40845
1.40845
1.40845
1.40845
1.40845
1.40845
1.40845
1.40844
1.40838
1.40788
1.40373
1.37063
1.19497
0.788811
0.510409
0.635627
0.660662
0.688907
0.697214
0.707245
0.722911
1.40845
1.40845
1.40845
1.40845
1.40845
1.40845
1.40845
1.40845
1.40845
1.40845
1.40845
1.40844
1.40836
1.40837
1.40664
1.39415
1.29799
0.926942
0.533029
0.593293
0.663452
0.695599
0.704839
0.714687
0.727839
1.40845
1.40845
1.40845
1.40845
1.40845
1.40845
1.40845
1.40845
1.40845
1.40845
1.40845
1.40845
1.40844
1.40834
1.40755
1.40112
1.35271
1.1308
0.653468
0.539258
0.658963
0.679793
0.70335
0.716725
0.731662
1.40845
1.40845
1.40845
1.40845
1.40845
1.40845
1.40845
1.40845
1.40845
1.40845
1.40845
1.40845
1.40844
1.40833
1.40836
1.40621
1.39175
1.28253
0.855676
0.528092
0.624069
0.676319
0.706863
0.719141
0.733261
1.40845
1.40845
1.40845
1.40845
1.40845
1.40845
1.40845
1.40845
1.40845
1.40845
1.40845
1.40845
1.40845
1.40843
1.4083
1.40724
1.39885
1.33738
1.08125
0.569308
0.573108
0.67192
0.699582
0.718495
0.734146
1.40845
1.40845
1.40845
1.40845
1.40845
1.40845
1.40845
1.40845
1.40845
1.40845
1.40845
1.40845
1.40845
1.40844
1.40831
1.4083
1.40596
1.38912
1.26535
0.794462
0.523
0.636506
0.686412
0.71982
0.734312
1.40845
1.40845
1.40845
1.40845
1.40845
1.40845
1.40845
1.40845
1.40845
1.40845
1.40845
1.40845
1.40845
1.40845
1.40843
1.40828
1.40706
1.39779
1.33085
1.06325
0.566598
0.584266
0.682796
0.710696
0.731446
1.40845
1.40845
1.40845
1.40845
1.40845
1.40845
1.40845
1.40845
1.40845
1.40845
1.40845
1.40845
1.40845
1.40845
1.40844
1.40831
1.40836
1.40592
1.38951
1.27235
0.793106
0.528809
0.641478
0.695878
0.729973
1.40845
1.40845
1.40845
1.40845
1.40845
1.40845
1.40845
1.40845
1.40845
1.40845
1.40845
1.40845
1.40845
1.40845
1.40845
1.40843
1.40828
1.4071
1.39835
1.33383
1.06241
0.57424
0.587548
0.688797
0.712209
1.40845
1.40845
1.40845
1.40845
1.40845
1.40845
1.40845
1.40845
1.40845
1.40845
1.40845
1.40845
1.40845
1.40845
1.40845
1.40845
1.40841
1.40859
1.40655
1.39009
1.27461
0.821186
0.539918
0.639688
0.703166
1.40845
1.40845
1.40845
1.40845
1.40845
1.40845
1.40845
1.40845
1.40845
1.40845
1.40845
1.40845
1.40845
1.40845
1.40845
1.40845
1.40843
1.40832
1.40736
1.39997
1.34409
1.08867
0.604737
0.583802
0.686876
1.40845
1.40845
1.40845
1.40845
1.40845
1.40845
1.40845
1.40845
1.40845
1.40845
1.40845
1.40845
1.40845
1.40845
1.40845
1.40845
1.40845
1.40846
1.40869
1.40721
1.39255
1.28541
0.883205
0.557429
0.623029
1.40845
1.40845
1.40845
1.40845
1.40845
1.40845
1.40845
1.40845
1.40845
1.40845
1.40845
1.40845
1.40845
1.40845
1.40845
1.40845
1.40845
1.40844
1.40834
1.40749
1.40116
1.35331
1.11157
0.638437
0.570038
1.40845
1.40845
1.40845
1.40845
1.40845
1.40845
1.40845
1.40845
1.40845
1.40845
1.40845
1.40845
1.40845
1.40845
1.40845
1.40845
1.40845
1.40845
1.40843
1.40832
1.40719
1.39637
1.31345
1.02415
0.614438
1.40845
1.40845
1.40845
1.40845
1.40845
1.40845
1.40845
1.40845
1.40845
1.40845
1.40845
1.40845
1.40845
1.40845
1.40845
1.40845
1.40845
1.40845
1.40844
1.40837
1.40778
1.40102
1.40426
1.3128
0.822897
1.40845
1.40845
1.40845
1.40845
1.40845
1.40845
1.40845
1.40845
1.40845
1.40845
1.40845
1.40845
1.40845
1.40845
1.40845
1.40845
1.40845
1.40845
1.40845
1.40843
1.40832
1.40733
1.40029
1.34955
1.08945
1.40845
1.40845
1.40845
1.40845
1.40845
1.40845
1.40845
1.40845
1.40845
1.40845
1.40845
1.40845
1.40845
1.40845
1.40845
1.40845
1.40845
1.40845
1.40845
1.40844
1.4084
1.40815
1.4066
1.39829
1.31835
1.40845
1.40845
1.40845
1.40845
1.40845
1.40845
1.40845
1.40845
1.40845
1.40845
1.40845
1.40845
1.40845
1.40845
1.40845
1.40845
1.40845
1.40845
1.40845
1.40845
1.40844
1.40838
1.40781
1.40389
1.40144
1.40845
1.40845
1.40845
1.40845
1.40845
1.40845
1.40845
1.40845
1.40845
1.40845
1.40845
1.40845
1.40845
1.40845
1.40845
1.40845
1.40845
1.40845
1.40845
1.40845
1.40845
1.40845
1.40835
1.40735
1.40168
1.40845
1.40845
1.40845
1.40845
1.40845
1.40845
1.40845
1.40845
1.40845
1.40845
1.40845
1.40845
1.40845
1.40845
1.40845
1.40845
1.40845
1.40845
1.40845
1.40845
1.40845
1.40845
1.40841
1.40819
1.40664
1.40845
1.40845
1.40845
1.40845
1.40845
1.40845
1.40845
1.40845
1.40845
1.40845
1.40845
1.40845
1.40845
1.40845
1.40845
1.40845
1.40845
1.40845
1.40845
1.40845
1.40845
1.40845
1.40844
1.40837
1.40781
1.40845
1.40845
1.40845
1.40845
1.40845
1.40845
1.40845
1.40845
1.40845
1.40845
1.40845
1.40845
1.40845
1.40845
1.40845
1.40845
1.40845
1.40845
1.40845
1.40845
1.40845
1.40845
1.40845
1.40843
1.40832
1.40845
1.40845
1.40845
1.40845
1.40845
1.40845
1.40845
1.40845
1.40845
1.40845
1.40845
1.40845
1.40845
1.40845
1.40845
1.40845
1.40845
1.40845
1.40845
1.40845
1.40845
1.40845
1.40845
1.40844
1.40841
1.40845
1.40845
1.40845
1.40845
1.40845
1.40845
1.40845
1.40845
1.40845
1.40845
1.40845
1.40845
1.40845
1.40845
1.40845
1.40845
1.40845
1.40845
1.40845
1.40845
1.40845
1.40845
1.40845
1.40845
1.40844
1.40845
1.40845
1.40845
1.40845
1.40845
1.40845
1.40845
1.40845
1.40845
1.40845
1.40845
1.40845
1.40845
1.40845
1.40845
1.40845
1.40845
1.40845
1.40845
1.40845
1.40845
1.40845
1.40845
1.40845
1.40845
1.40845
1.40845
1.40845
1.40845
1.40845
1.40845
1.40845
1.40845
1.40845
1.40845
1.40845
1.40845
1.40845
1.40845
1.40845
1.40845
1.40845
1.40845
1.40845
1.40845
1.40845
1.40845
1.40845
1.40845
1.40845
1.40845
1.40845
1.40845
1.40845
1.40845
1.40845
1.40845
1.40845
1.40845
1.40845
1.40845
1.40845
1.40845
1.40845
1.40845
1.40845
1.40845
1.40845
1.40845
1.40845
1.40845
1.40845
1.40845
1.40845
1.40845
1.40845
1.40845
1.40845
1.40845
1.40845
1.40845
1.40845
1.40845
1.40845
1.40845
1.40845
1.40845
1.40845
1.40845
1.40845
1.40845
1.40845
1.40845
1.40845
1.40845
1.40845
1.40845
1.40845
1.40845
1.40845
1.40845
1.40845
1.40845
1.40845
1.40845
1.40845
1.40845
1.40845
1.40845
1.40845
1.40845
1.40845
1.40845
1.40845
1.40845
1.40845
1.40845
1.40845
1.40845
1.40845
1.40845
1.40845
1.40845
1.40845
1.40845
1.40845
1.40845
1.40845
1.40845
1.40845
1.40845
1.40845
1.40845
1.40845
1.40845
1.40845
1.40845
1.40845
1.40845
1.40845
1.40845
1.40845
1.40845
1.40845
1.40845
1.40845
1.40845
1.40845
1.40845
1.40845
0.705511
0.624154
0.514768
0.522774
0.527147
0.518655
0.511582
0.515307
0.548964
0.562766
0.564842
0.564592
0.564086
0.560903
0.558525
0.574415
0.585658
0.59075
0.591721
0.591789
0.591139
0.5907
0.590492
0.591796
0.594782
0.597388
0.59887
0.59976
0.600373
0.599556
0.600413
0.600113
0.598796
0.595985
0.586466
0.579093
0.57382
0.564538
0.556756
0.550092
0.543724
0.532723
0.525797
0.519436
0.514543
0.512396
0.510936
0.508343
0.507434
0.50115
0.502924
0.504841
0.507035
0.509177
0.51111
0.513297
0.515607
0.51794
0.52027
0.522683
0.525044
0.527417
0.529756
0.532131
0.534544
0.536881
0.539232
0.541461
0.543722
0.545866
0.548047
0.550128
0.552227
0.554274
0.556323
0.558239
0.560168
0.562016
0.563891
0.565704
0.567546
0.569334
0.571159
0.572946
0.574772
0.576583
0.578431
0.580275
0.582154
0.58403
0.585925
0.587823
0.589735
0.591681
0.593647
0.595725
0.597839
0.601329
0.601358
0.599638
0.684201
0.633489
0.585875
0.538369
0.52399
0.513608
0.496411
0.475948
0.509729
0.521253
0.523076
0.513252
0.510884
0.508594
0.509364
0.521356
0.527353
0.530651
0.530853
0.530767
0.530665
0.529133
0.52751
0.526974
0.52694
0.529653
0.532357
0.534753
0.536078
0.535408
0.535183
0.533701
0.531284
0.530929
0.524097
0.519118
0.516555
0.509521
0.505584
0.502046
0.499996
0.497119
0.4941
0.487749
0.489935
0.492088
0.493998
0.498756
0.502112
0.507009
0.513043
0.519418
0.526849
0.533244
0.538313
0.543699
0.549633
0.554848
0.558557
0.562027
0.565568
0.569007
0.572175
0.575321
0.578615
0.581829
0.584891
0.587959
0.591128
0.594176
0.597275
0.600167
0.602995
0.605688
0.608323
0.610626
0.612856
0.614856
0.61686
0.618746
0.620648
0.622526
0.624449
0.626389
0.628382
0.630392
0.632452
0.634533
0.636659
0.638796
0.640954
0.6431
0.64526
0.647453
0.649676
0.651987
0.654443
0.65827
0.658825
0.656864
0.754471
0.698015
0.648727
0.584462
0.555428
0.541296
0.533718
0.509174
0.489439
0.489562
0.487218
0.494292
0.505823
0.496372
0.490325
0.484488
0.500619
0.506054
0.506662
0.505702
0.504875
0.504205
0.50281
0.502508
0.502447
0.504734
0.504575
0.504866
0.506304
0.506099
0.50669
0.506766
0.503518
0.501976
0.497262
0.494098
0.492354
0.479318
0.47761
0.478416
0.480635
0.48557
0.492748
0.502678
0.513696
0.525593
0.534794
0.544788
0.553648
0.56146
0.569576
0.576875
0.585221
0.593433
0.598376
0.603111
0.608239
0.614187
0.618956
0.623133
0.627112
0.631156
0.634685
0.637652
0.640519
0.643427
0.646202
0.649015
0.651948
0.65503
0.658253
0.661463
0.66448
0.66743
0.670399
0.673023
0.675489
0.67768
0.679807
0.681698
0.68355
0.685339
0.687168
0.689022
0.690948
0.692917
0.694949
0.697014
0.699122
0.701255
0.703411
0.705573
0.70775
0.709949
0.712195
0.714517
0.717044
0.720921
0.721881
0.71942
0.809259
0.779903
0.741298
0.678908
0.621427
0.583797
0.580026
0.566164
0.541088
0.516481
0.5038
0.498341
0.500932
0.506345
0.506252
0.494778
0.491969
0.493087
0.494114
0.49689
0.506431
0.51176
0.508499
0.508151
0.507286
0.506772
0.506976
0.508454
0.509401
0.508189
0.506074
0.503669
0.496914
0.486912
0.4832
0.48387
0.483575
0.488011
0.498641
0.51503
0.533132
0.544222
0.561833
0.572452
0.583306
0.595996
0.604562
0.609518
0.617417
0.623486
0.628778
0.634165
0.63983
0.646355
0.650122
0.653659
0.657622
0.662806
0.666552
0.670113
0.673128
0.67632
0.679929
0.683556
0.686956
0.689839
0.692052
0.694295
0.69673
0.699432
0.702369
0.705474
0.708613
0.711747
0.714921
0.71759
0.719925
0.722156
0.7244
0.726514
0.728535
0.730394
0.732211
0.734021
0.735863
0.737751
0.739712
0.741755
0.743878
0.746062
0.748285
0.750535
0.7528
0.755092
0.757452
0.759889
0.762554
0.766411
0.768057
0.765109
0.800186
0.811568
0.795704
0.757593
0.714232
0.665035
0.640364
0.643985
0.618259
0.58388
0.552203
0.533126
0.522295
0.522619
0.524134
0.521546
0.515159
0.507149
0.503091
0.500422
0.501435
0.50359
0.506119
0.508306
0.509772
0.50872
0.509025
0.509716
0.51127
0.510993
0.507573
0.502758
0.494889
0.495579
0.500548
0.511441
0.527
0.546514
0.565211
0.587073
0.597773
0.610786
0.625935
0.636889
0.646969
0.655733
0.661012
0.664228
0.668041
0.670819
0.675099
0.678316
0.683307
0.686158
0.68887
0.691934
0.695506
0.699894
0.701451
0.703428
0.70615
0.709385
0.713463
0.717095
0.71968
0.721771
0.723947
0.72635
0.728906
0.731529
0.734196
0.736945
0.739839
0.74291
0.746191
0.74871
0.750855
0.753014
0.755193
0.757392
0.759525
0.761473
0.763367
0.765261
0.767173
0.769126
0.771142
0.773233
0.775404
0.777645
0.779941
0.782293
0.784671
0.787062
0.789501
0.792011
0.794759
0.798451
0.801041
0.797887
0.773885
0.811031
0.812276
0.794535
0.771938
0.744445
0.715617
0.720779
0.694623
0.656615
0.622404
0.596227
0.575576
0.565764
0.563354
0.556297
0.547016
0.536488
0.528437
0.520965
0.517227
0.514184
0.512891
0.512114
0.512667
0.513001
0.513593
0.513534
0.512056
0.510387
0.507512
0.508275
0.512201
0.519586
0.534359
0.557074
0.583855
0.615913
0.634068
0.657265
0.6678
0.680984
0.688035
0.696281
0.697474
0.700726
0.704918
0.706616
0.70617
0.706259
0.707385
0.709928
0.713568
0.716114
0.71863
0.72038
0.722044
0.72396
0.725973
0.72804
0.731709
0.735006
0.737685
0.739931
0.7419
0.744105
0.746702
0.749434
0.751833
0.754103
0.756449
0.758939
0.761604
0.764444
0.767089
0.76927
0.771456
0.773718
0.776052
0.778319
0.780381
0.782306
0.784217
0.786157
0.788134
0.790181
0.792327
0.794566
0.796879
0.799263
0.801697
0.804168
0.806644
0.809126
0.811661
0.814294
0.817186
0.820829
0.824195
0.820879
0.744276
0.792319
0.811841
0.811488
0.803617
0.794737
0.781002
0.788461
0.778403
0.751799
0.717442
0.690075
0.663993
0.638582
0.62714
0.614001
0.60048
0.586837
0.573631
0.561521
0.551933
0.544022
0.538235
0.532413
0.529493
0.525067
0.52372
0.521425
0.516139
0.51704
0.51879
0.523264
0.536392
0.565327
0.6101
0.643984
0.679186
0.702365
0.72078
0.733391
0.737446
0.741188
0.739289
0.736448
0.730035
0.73378
0.735357
0.735449
0.736571
0.735999
0.732023
0.73299
0.735416
0.736972
0.739636
0.74127
0.741594
0.74232
0.743779
0.745616
0.748946
0.75152
0.75295
0.754762
0.756963
0.759376
0.762036
0.764157
0.766063
0.76797
0.770057
0.772392
0.774948
0.777658
0.780116
0.782335
0.784486
0.786662
0.788814
0.790891
0.792913
0.794938
0.796984
0.799086
0.801255
0.803504
0.805838
0.808239
0.810681
0.813155
0.815666
0.81823
0.820815
0.823377
0.825979
0.828661
0.831573
0.835125
0.838795
0.835371
0.735516
0.769276
0.798713
0.810579
0.808656
0.810559
0.813733
0.824477
0.825066
0.816966
0.793721
0.767696
0.744684
0.726201
0.70911
0.701294
0.686809
0.667035
0.646447
0.626449
0.611503
0.596911
0.586068
0.573845
0.565966
0.555676
0.550585
0.543693
0.528137
0.531281
0.541705
0.561548
0.597024
0.653472
0.698011
0.730873
0.75934
0.778909
0.796648
0.801849
0.806623
0.806497
0.802252
0.795092
0.782156
0.765929
0.746067
0.750837
0.757267
0.755345
0.755473
0.754667
0.751401
0.751098
0.752361
0.754195
0.756281
0.756919
0.757436
0.757965
0.758841
0.760658
0.762691
0.765176
0.767569
0.769426
0.771316
0.773099
0.774647
0.776261
0.778226
0.780652
0.783598
0.786216
0.788158
0.790094
0.792081
0.79413
0.796241
0.798427
0.800661
0.802921
0.805145
0.807352
0.809573
0.811829
0.814136
0.816463
0.81884
0.821307
0.823896
0.826587
0.829235
0.831883
0.834558
0.837319
0.840329
0.844018
0.847976
0.844535
0.736902
0.759234
0.7835
0.800004
0.807314
0.813562
0.820892
0.833819
0.852387
0.854686
0.847655
0.832715
0.815173
0.800041
0.785214
0.780308
0.773687
0.758129
0.737857
0.716819
0.697211
0.677485
0.660629
0.643984
0.628246
0.61133
0.596914
0.576967
0.566505
0.567153
0.587504
0.621901
0.678778
0.744751
0.772468
0.792898
0.813715
0.831145
0.8444
0.854562
0.860425
0.862003
0.859125
0.853099
0.839097
0.822155
0.801357
0.775409
0.749565
0.75674
0.772448
0.771332
0.769443
0.764979
0.759984
0.762315
0.763095
0.764059
0.765295
0.764956
0.765299
0.766755
0.768977
0.77105
0.773593
0.775647
0.777043
0.778413
0.780031
0.782115
0.784782
0.787431
0.789312
0.79111
0.792956
0.79488
0.79694
0.79923
0.801654
0.804025
0.806194
0.808324
0.810448
0.812587
0.814774
0.817041
0.819401
0.821861
0.824418
0.826962
0.829443
0.831905
0.834392
0.836933
0.839568
0.842368
0.84546
0.849248
0.853338
0.849749
0.741461
0.757729
0.776675
0.787538
0.802702
0.809519
0.819342
0.833527
0.851126
0.867969
0.873319
0.867025
0.858258
0.850796
0.842861
0.839284
0.835838
0.830229
0.816857
0.800551
0.783699
0.767005
0.75001
0.733038
0.714867
0.690944
0.66442
0.596612
0.601104
0.62396
0.653657
0.697063
0.761823
0.797173
0.815903
0.834733
0.851527
0.865117
0.877041
0.889942
0.89698
0.900534
0.899857
0.895981
0.886466
0.87629
0.856776
0.83127
0.803934
0.758052
0.755481
0.764667
0.774634
0.775281
0.774779
0.77235
0.768678
0.770322
0.770495
0.77104
0.771774
0.773502
0.776239
0.777533
0.778355
0.779606
0.781318
0.783466
0.785808
0.788125
0.790561
0.792719
0.794398
0.796165
0.798081
0.800226
0.80275
0.805046
0.806933
0.80883
0.810744
0.812719
0.81481
0.81706
0.819497
0.822143
0.824836
0.827194
0.82942
0.831625
0.833854
0.836141
0.838516
0.841013
0.843657
0.846484
0.849578
0.853334
0.857361
0.853655
0.744757
0.759336
0.774419
0.784284
0.796642
0.804127
0.815215
0.829582
0.847033
0.864508
0.880653
0.880453
0.878029
0.875019
0.870339
0.869005
0.873352
0.874415
0.869057
0.858372
0.845723
0.833202
0.820303
0.80508
0.783147
0.754787
0.703379
0.624359
0.649813
0.672946
0.705358
0.755593
0.801568
0.821232
0.841542
0.861229
0.877603
0.891923
0.906437
0.912827
0.916199
0.921122
0.922524
0.921399
0.918644
0.914588
0.902384
0.886757
0.863006
0.828843
0.793297
0.748173
0.757179
0.774989
0.784606
0.783188
0.781196
0.775963
0.77734
0.778777
0.78009
0.782605
0.782647
0.783023
0.78392
0.785902
0.788038
0.790356
0.793005
0.794918
0.796531
0.798027
0.799598
0.801295
0.803214
0.805464
0.807912
0.810064
0.811885
0.81377
0.815732
0.817791
0.819946
0.822205
0.824539
0.826921
0.829171
0.831404
0.833677
0.83599
0.838354
0.840795
0.843321
0.845934
0.848635
0.851452
0.854482
0.858163
0.862136
0.85835
0.746808
0.762667
0.775559
0.78637
0.793785
0.800515
0.809593
0.822108
0.839274
0.857858
0.874282
0.885406
0.888138
0.887097
0.88547
0.887523
0.892199
0.895432
0.900748
0.898158
0.890542
0.88064
0.869933
0.85314
0.829283
0.786556
0.720833
0.656704
0.690835
0.707826
0.738719
0.783194
0.803138
0.824222
0.847073
0.865642
0.88461
0.900878
0.915661
0.923659
0.932583
0.9326
0.933617
0.933545
0.934819
0.934377
0.930994
0.924387
0.910248
0.889324
0.863409
0.826649
0.776614
0.761652
0.778182
0.784847
0.79249
0.791521
0.790527
0.788069
0.788265
0.789126
0.791451
0.791806
0.792624
0.794416
0.79661
0.798302
0.800778
0.801899
0.803033
0.804332
0.805893
0.807833
0.810163
0.81281
0.814843
0.81672
0.818663
0.820668
0.822759
0.824823
0.82687
0.828932
0.831024
0.833163
0.835361
0.837613
0.83994
0.842363
0.84489
0.847511
0.850187
0.852885
0.85561
0.858421
0.861434
0.865107
0.869037
0.865057
0.749184
0.765881
0.777017
0.788391
0.794425
0.801457
0.808056
0.817528
0.831067
0.847055
0.865324
0.877979
0.888822
0.894613
0.894272
0.895606
0.89865
0.904249
0.91373
0.91961
0.915136
0.906526
0.897514
0.879589
0.841334
0.776234
0.669691
0.685666
0.708068
0.730165
0.761907
0.782651
0.801821
0.82206
0.842537
0.858398
0.874213
0.887323
0.898796
0.909577
0.920907
0.93085
0.941654
0.942172
0.942517
0.942418
0.942853
0.943737
0.941046
0.935667
0.922156
0.898286
0.862726
0.820519
0.762863
0.771001
0.789084
0.797786
0.802039
0.800556
0.797095
0.795739
0.797206
0.798755
0.80032
0.801546
0.803949
0.805364
0.807053
0.809279
0.811081
0.812713
0.814325
0.816073
0.818049
0.820195
0.82241
0.824557
0.826567
0.828654
0.830849
0.833132
0.835472
0.837847
0.840164
0.842401
0.84467
0.847009
0.849446
0.852008
0.85468
0.857419
0.860185
0.862859
0.865555
0.86832
0.871287
0.874928
0.878772
0.874519
0.749576
0.766874
0.778909
0.791362
0.797991
0.803843
0.809417
0.817688
0.828396
0.84076
0.855214
0.869867
0.880956
0.89355
0.89525
0.896165
0.899346
0.904971
0.913136
0.925467
0.921483
0.914348
0.902223
0.874187
0.815913
0.724476
0.682749
0.716264
0.729778
0.746396
0.766046
0.781728
0.798524
0.8155
0.831307
0.845114
0.858873
0.870878
0.882913
0.895699
0.909227
0.918266
0.925748
0.934928
0.942774
0.950732
0.951763
0.954491
0.957759
0.960726
0.955654
0.94616
0.925328
0.893652
0.852379
0.80203
0.764595
0.781358
0.792504
0.808799
0.804901
0.804348
0.79971
0.801278
0.802804
0.803649
0.805464
0.80749
0.807963
0.808598
0.809901
0.811754
0.814444
0.817323
0.81979
0.821779
0.823646
0.825607
0.827853
0.8303
0.832864
0.835419
0.837828
0.840232
0.842687
0.845213
0.84785
0.850564
0.853242
0.85596
0.858739
0.861576
0.864476
0.867252
0.870059
0.872979
0.876161
0.880083
0.884519
0.88041
0.750913
0.767645
0.779319
0.790853
0.80027
0.806749
0.811619
0.818803
0.828138
0.83989
0.851033
0.864237
0.873671
0.885103
0.894672
0.895523
0.898348
0.902483
0.910266
0.922462
0.91817
0.910772
0.89015
0.841878
0.765405
0.686283
0.716548
0.729219
0.740022
0.751546
0.763773
0.776674
0.791052
0.805518
0.819682
0.833292
0.846218
0.857678
0.869747
0.883267
0.893107
0.903216
0.915602
0.925125
0.934486
0.94482
0.954174
0.967
0.968787
0.970331
0.966729
0.966564
0.959862
0.946745
0.920063
0.881265
0.837996
0.773145
0.777013
0.799738
0.80248
0.812316
0.809355
0.808448
0.807132
0.807179
0.807697
0.811414
0.812192
0.81296
0.814313
0.816235
0.818869
0.822629
0.824709
0.825996
0.827413
0.829143
0.83131
0.834111
0.836962
0.838995
0.841111
0.843361
0.845811
0.848471
0.851304
0.854215
0.856992
0.859812
0.862711
0.865669
0.868681
0.871543
0.874413
0.877415
0.880726
0.884817
0.889515
0.8853
0.750677
0.767709
0.779329
0.789525
0.801013
0.807552
0.812719
0.819573
0.828118
0.838783
0.850256
0.862277
0.873314
0.879935
0.891358
0.893409
0.896202
0.900851
0.909151
0.908832
0.906219
0.895007
0.856861
0.787109
0.687732
0.709288
0.734564
0.740148
0.746436
0.753243
0.761527
0.771276
0.782906
0.795645
0.808958
0.822535
0.834771
0.846583
0.859094
0.870268
0.880815
0.893474
0.904986
0.91503
0.927199
0.937085
0.948732
0.957885
0.964014
0.972727
0.972274
0.972426
0.972242
0.970692
0.960864
0.945699
0.916865
0.874732
0.826486
0.7678
0.78186
0.797448
0.820044
0.819621
0.817552
0.813901
0.813015
0.812892
0.813919
0.817032
0.821366
0.821697
0.822489
0.823667
0.825592
0.827869
0.830171
0.832759
0.835432
0.837578
0.839534
0.841303
0.843269
0.845512
0.848058
0.850792
0.853517
0.856235
0.858924
0.861723
0.864706
0.867857
0.87088
0.873799
0.876836
0.880101
0.883762
0.888219
0.893572
0.889449
0.74974
0.767324
0.780234
0.788809
0.80093
0.808273
0.813006
0.819977
0.828332
0.837851
0.847991
0.85916
0.871207
0.880957
0.888226
0.892405
0.897413
0.9034
0.902522
0.898356
0.889645
0.85947
0.799835
0.701851
0.711569
0.735586
0.740219
0.744154
0.747621
0.752104
0.758538
0.766804
0.776637
0.787718
0.799818
0.813001
0.825076
0.838224
0.849765
0.860282
0.872189
0.884744
0.895522
0.907847
0.916791
0.926044
0.936288
0.945928
0.95476
0.961022
0.968308
0.976938
0.978468
0.98201
0.981343
0.981205
0.969881
0.944638
0.906916
0.857052
0.794555
0.783667
0.804501
0.811076
0.828787
0.826656
0.822841
0.817858
0.818424
0.819402
0.821668
0.825193
0.826786
0.828007
0.82936
0.831085
0.833313
0.835706
0.838463
0.840426
0.842282
0.84417
0.846139
0.848433
0.851027
0.853787
0.856324
0.858812
0.861409
0.864139
0.867051
0.870081
0.873197
0.87621
0.879378
0.882787
0.886624
0.89122
0.89684
0.892673
0.746314
0.764585
0.779599
0.788078
0.798647
0.80955
0.813191
0.819049
0.827377
0.837118
0.846036
0.855094
0.866322
0.880465
0.886345
0.893304
0.900202
0.898851
0.893915
0.88652
0.859717
0.805981
0.710406
0.710042
0.730334
0.738
0.742489
0.745101
0.747969
0.751996
0.757618
0.764991
0.77385
0.783975
0.795263
0.807034
0.818926
0.831469
0.841828
0.852902
0.864924
0.875649
0.887074
0.897983
0.905925
0.915701
0.92601
0.935904
0.943701
0.952515
0.960866
0.969347
0.97874
0.986988
0.988529
0.994251
0.990953
0.983123
0.965238
0.936341
0.895641
0.850795
0.782786
0.790401
0.810435
0.819938
0.834245
0.832625
0.830028
0.826558
0.826991
0.82756
0.829774
0.834729
0.835999
0.836514
0.837425
0.838846
0.84106
0.844357
0.846312
0.848014
0.849874
0.852053
0.854658
0.857596
0.860837
0.863325
0.865769
0.868339
0.871076
0.873956
0.877001
0.880076
0.88322
0.886564
0.890323
0.894798
0.900415
0.896257
0.740021
0.758996
0.778369
0.789762
0.797029
0.809162
0.81343
0.817465
0.825166
0.835507
0.84456
0.852081
0.861374
0.87535
0.886053
0.900105
0.897467
0.8913
0.884194
0.861191
0.81193
0.723836
0.707807
0.731623
0.73611
0.742012
0.746193
0.749775
0.753201
0.756964
0.761484
0.767189
0.774495
0.783165
0.793276
0.803904
0.8159
0.82614
0.836596
0.847548
0.858894
0.869097
0.880103
0.888684
0.898394
0.909123
0.919133
0.928118
0.937299
0.946936
0.954094
0.962044
0.97108
0.981113
0.989922
0.997929
0.99952
0.996604
0.995395
0.98725
0.966911
0.929859
0.883149
0.835168
0.786239
0.80001
0.814666
0.839646
0.839579
0.836467
0.83374
0.832051
0.832343
0.833623
0.837226
0.840914
0.842236
0.843208
0.844545
0.846315
0.848525
0.850543
0.852704
0.855413
0.858768
0.862019
0.865023
0.867786
0.870375
0.873048
0.875843
0.878684
0.881533
0.884491
0.887602
0.890951
0.894752
0.899345
0.90504
0.900664
0.736251
0.752282
0.771245
0.787845
0.796303
0.80838
0.816152
0.81687
0.822902
0.832625
0.843958
0.849567
0.857758
0.86942
0.883273
0.896921
0.892303
0.882445
0.861694
0.816604
0.74043
0.706688
0.734916
0.737696
0.742425
0.747794
0.751849
0.755784
0.759254
0.762714
0.76655
0.771125
0.776863
0.783803
0.79202
0.801516
0.812341
0.822823
0.8336
0.84486
0.854128
0.86404
0.873316
0.882939
0.893613
0.904543
0.91414
0.92404
0.934088
0.940322
0.947823
0.956153
0.964796
0.974034
0.98426
0.993669
1.00418
1.00769
1.00707
1.00534
1.00236
0.985117
0.957738
0.918846
0.872464
0.804857
0.802757
0.824089
0.827854
0.845366
0.843948
0.840216
0.836143
0.836249
0.837069
0.840267
0.844676
0.847873
0.848791
0.850182
0.851924
0.854039
0.856285
0.859147
0.862869
0.86601
0.868362
0.870886
0.873588
0.876276
0.879074
0.882136
0.885274
0.888549
0.891981
0.895577
0.899537
0.90424
0.909926
0.905305
0.713927
0.748207
0.76394
0.782439
0.793643
0.804554
0.819349
0.81977
0.821593
0.829117
0.841767
0.849846
0.855056
0.864806
0.882368
0.884131
0.878226
0.864606
0.822173
0.756494
0.697058
0.731303
0.734419
0.74045
0.748093
0.750958
0.754351
0.758601
0.763374
0.767118
0.770696
0.774475
0.778907
0.784404
0.791071
0.799128
0.808
0.81811
0.829303
0.839179
0.848908
0.858938
0.868533
0.879066
0.888448
0.897999
0.907292
0.917097
0.925588
0.934112
0.94222
0.95098
0.958576
0.967237
0.977367
0.98632
0.99471
1.00355
1.01072
1.01184
1.01589
1.01099
1.0004
0.985234
0.957107
0.915391
0.868605
0.798884
0.807323
0.825383
0.837132
0.851986
0.85086
0.846838
0.845256
0.845522
0.84721
0.850012
0.854687
0.856018
0.857459
0.85915
0.86111
0.863518
0.866838
0.870391
0.873068
0.875264
0.877774
0.880518
0.883467
0.886735
0.88997
0.893396
0.897024
0.900724
0.904637
0.909273
0.914654
0.909868
0.709665
0.737349
0.759141
0.773467
0.789326
0.79997
0.817483
0.823016
0.822614
0.82736
0.836628
0.848977
0.854053
0.861887
0.873532
0.868481
0.859035
0.824185
0.761765
0.688839
0.721994
0.729874
0.739428
0.74908
0.750727
0.753188
0.756532