/*--------------------------------*- C++ -*----------------------------------*\
| =========                 |                                                 |
| \\      /  F ield         | OpenFOAM: The Open Source CFD Toolbox           |
|  \\    /   O peration     | Version:  v2106                                 |
|   \\  /    A nd           | Website:  www.openfoam.com                      |
|    \\/     M anipulation  |                                                 |
\*---------------------------------------------------------------------------*/
FoamFile
{
    version     2.0;
    format      ascii;
    arch        "LSB;label=32;scalar=64";
    class       volScalarField;
    location    "9";
    object      T;
}
// * * * * * * * * * * * * * * * * * * * * * * * * * * * * * * * * * * * * * //

dimensions      [0 0 0 1 0 0 0];

internalField   nonuniform List<scalar> 
5250
(
1
1
1
1
1
1
1
1
1.00001
1.00009
1.00084
1.00741
1.0614
1.33739
2.05567
2.93843
2.40363
2.31632
2.36107
2.3578
2.36252
2.37203
2.37345
2.3683
2.37767
1
1
1
1
1
1
1
1
1.00001
1.00009
1.00082
1.00718
1.05974
1.33119
2.0424
2.95085
2.39435
2.30812
2.35453
2.35272
2.35803
2.36807
2.36972
2.36484
2.37503
1
1
1
1
1
1
1
1
1.00001
1.00009
1.00076
1.00668
1.05605
1.31709
2.01255
2.99816
2.38634
2.29766
2.34502
2.34286
2.34866
2.35992
2.36164
2.35661
2.36705
1
1
1
1
1
1
1
1
1.00001
1.00008
1.0007
1.00604
1.05095
1.29678
1.96987
3.06163
2.40053
2.30195
2.34632
2.33962
2.34277
2.35137
2.35172
2.3464
2.35709
1
1
1
1
1
1
1
1
1.00001
1.00007
1.00062
1.00528
1.04463
1.27006
1.91513
3.07737
2.43458
2.31881
2.35652
2.34302
2.3414
2.34293
2.34127
2.33461
2.34445
1
1
1
1
1
1
1
1
1.00001
1.00005
1.00047
1.00415
1.03776
1.23981
1.85149
3.10427
2.48554
2.34879
2.37596
2.35439
2.34443
2.33988
2.33162
2.31864
2.32637
1
1
1
1
1
1
1
1
1
1.00004
1.00036
1.00324
1.03105
1.20755
1.77554
3.14465
2.561
2.39713
2.40645
2.37408
2.35071
2.33374
2.31403
2.30043
2.30247
1
1
1
1
1
1
1
1
1
1.00003
1.00031
1.00282
1.0259
1.18043
1.70036
3.09929
2.58324
2.43949
2.43943
2.40061
2.36385
2.33229
2.30408
2.27402
2.26331
1
1
1
1
1
1
1
1
1
1.00003
1.00025
1.00223
1.02056
1.1505
1.62107
2.99277
2.5604
2.48236
2.47732
2.44318
2.39041
2.33392
2.27708
2.24664
2.20156
1
1
1
1
1
1
1
1
1
1.00002
1.00021
1.00183
1.01687
1.12703
1.53924
2.84367
2.48428
2.48269
2.47512
2.45117
2.40923
2.34849
2.26801
2.21165
2.06058
1
1
1
1
1
1
1
1
1
1.00002
1.00016
1.00137
1.01239
1.09472
1.45445
2.69526
2.51741
2.42746
2.43235
2.43904
2.40826
2.3423
2.23541
2.09703
1.79774
1
1
1
1
1
1
1
1
1
1.00001
1.00009
1.00081
1.00749
1.06377
1.37049
2.51189
2.58139
2.36075
2.36528
2.40059
2.39612
2.34602
2.24373
2.11305
1.72885
1
1
1
1
1
1
1
1
1
1.00001
1.00007
1.0006
1.00509
1.04399
1.26817
1.94787
2.69526
2.25084
2.27903
2.33851
2.36162
2.33533
2.24244
2.13478
1.76952
1
1
1
1
1
1
1
1
1
1
1.00004
1.00034
1.00308
1.02888
1.19715
1.74989
2.87464
2.26384
2.23091
2.26751
2.31185
2.30101
2.23141
2.13162
1.84351
1
1
1
1
1
1
1
1
1
1
1.00003
1.00025
1.00213
1.01951
1.14224
1.58459
2.88082
2.29047
2.23821
2.21747
2.24543
2.25055
2.20956
2.13197
1.94206
1
1
1
1
1
1
1
1
1
1
1.00002
1.00015
1.00132
1.01177
1.08874
1.43943
2.74797
2.44863
2.20707
2.13403
2.15274
2.18801
2.17225
2.11951
1.99407
1
1
1
1
1
1
1
1
1
1
1.00001
1.00006
1.00056
1.00496
1.04408
1.29977
2.32877
2.64617
2.23631
2.13609
2.13683
2.14497
2.13123
2.09355
2.00315
1
1
1
1
1
1
1
1
1
1
1
1.00004
1.00036
1.00317
1.02799
1.19179
1.74283
2.83226
2.25483
2.19051
2.11882
2.11162
2.09266
2.05942
1.99464
1
1
1
1
1
1
1
1
1
1
1
1.00002
1.00021
1.00176
1.01533
1.1121
1.51605
2.78024
2.35741
2.19328
2.09424
2.07237
2.04927
2.01933
1.97008
1
1
1
1
1
1
1
1
1
1
1
1.00001
1.00008
1.00077
1.00672
1.05858
1.35572
2.52429
2.51532
2.19296
2.06651
2.05501
2.03664
2.00587
1.95695
1
1
1
1
1
1
1
1
1
1
1
1.00001
1.00005
1.0004
1.00336
1.02759
1.17865
1.78554
2.75945
2.21585
2.13188
2.04447
2.02011
1.99146
1.9483
1
1
1
1
1
1
1
1
1
1
1
1.00001
1.00007
1.00006
1.00129
1.01025
1.0851
1.51946
2.64235
2.37396
2.12291
2.0248
1.99826
1.97072
1.93511
1
1
1
1
1
1
1
1
1
1
1
1
1.00001
1.00008
1.00064
1.00523
1.0412
1.24554
2.15535
2.61183
2.13737
2.07188
2.00249
1.96512
1.925
1
1
1
1
1
1
1
1
1
1
1
1
1.00001
1.00008
1.00007
1.00159
1.012
1.09818
1.64601
2.66706
2.25688
2.08253
1.99254
1.95852
1.9208
1
1
1
1
1
1
1
1
1
1
1
1
1
1.00001
1.00011
1.00086
1.00686
1.05314
1.30261
2.47397
2.45756
2.09616
2.01327
1.96028
1.91849
1
1
1
1
1
1
1
1
1
1
1
1
1
1.00001
1.0001
1.00011
1.00177
1.01392
1.11309
1.77284
2.69302
2.21278
2.0519
1.95667
1.91805
1
1
1
1
1
1
1
1
1
1
1
1
1
1
1.00002
1.00012
1.00099
1.00763
1.05831
1.32466
2.4858
2.41063
2.06277
1.98179
1.92557
1
1
1
1
1
1
1
1
1
1
1
1
1
1
1.00001
1.0001
1.00006
1.0018
1.01363
1.10697
1.77587
2.66344
2.19563
2.02399
1.92946
1
1
1
1
1
1
1
1
1
1
1
1
1
1
1
1.00002
1.00012
1.00096
1.00723
1.05595
1.32571
2.45272
2.39717
2.0448
1.97758
1
1
1
1
1
1
1
1
1
1
1
1
1
1
1
1
1.00003
0.999903
1.00135
1.01321
1.105
1.71514
2.60864
2.20178
2.00301
1
1
1
1
1
1
1
1
1
1
1
1
1
1
1
1
1.00001
1.00009
1.00078
1.00606
1.04789
1.29374
2.32903
2.41255
2.05052
1
1
1
1
1
1
1
1
1
1
1
1
1
1
1
1
0.999999
0.999993
0.99983
1.00088
1.01142
1.09572
1.5947
2.52669
2.26065
1
1
1
1
1
1
1
1
1
1
1
1
1
1
1
1
1
1.00001
1.00008
1.00068
1.0052
1.04074
1.26708
2.20609
2.4708
1
1
1
1
1
1
1
1
1
1
1
1
1
1
1
1
1
1
1.00001
1.00009
1.0009
1.00865
1.07233
1.37523
2.29226
1
1
1
1
1
1
1
1
1
1
1
1
1
1
1
1
1
1
1.00001
1.00006
1.00048
1.0053
1.00299
1.07286
1.71158
1
1
1
1
1
1
1
1
1
1
1
1
1
1
1
1
1
1
1
1.00001
1.00009
1.0008
1.00583
1.04365
1.2928
1
1
1
1
1
1
1
1
1
1
1
1
1
1
1
1
1
1
1
1
1.00003
1.00021
1.00132
1.00727
1.06834
1
1
1
1
1
1
1
1
1
1
1
1
1
1
1
1
1
1
1
1
1.00001
1.00005
1.00045
1.00325
1.005
1
1
1
1
1
1
1
1
1
1
1
1
1
1
1
1
1
1
1
1
1
1
1.00007
1.00078
1.00483
1
1
1
1
1
1
1
1
1
1
1
1
1
1
1
1
1
1
1
1
1
1
1.00003
1.00019
1.00129
1
1
1
1
1
1
1
1
1
1
1
1
1
1
1
1
1
1
1
1
1
1
1.00001
1.00006
1.00045
1
1
1
1
1
1
1
1
1
1
1
1
1
1
1
1
1
1
1
1
1
1
1
1.00001
1.00009
1
1
1
1
1
1
1
1
1
1
1
1
1
1
1
1
1
1
1
1
1
1
1
1
1.00003
1
1
1
1
1
1
1
1
1
1
1
1
1
1
1
1
1
1
1
1
1
1
1
1
1.00001
1
1
1
1
1
1
1
1
1
1
1
1
1
1
1
1
1
1
1
1
1
1
1
1
1
1
1
1
1
1
1
1
1
1
1
1
1
1
1
1
1
1
1
1
1
1
1
1
1
1
1
1
1
1
1
1
1
1
1
1
1
1
1
1
1
1
1
1
1
1
1
1
1
1
1
1
1
1
1
1
1
1
1
1
1
1
1
1
1
1
1
1
1
1
1
1
1
1
1
1
1
1
1
1
1
1
1
1
1
1
1
1
1
1
1
1
1
1
1
1
1
1
1
1
1
1
1
1
1
1
1
1
1
1
1
1
1
1
1
1
1
1
1
1
1
1
1
1
1
1
1.99636
2.25658
2.73609
2.69418
2.67184
2.71558
2.75313
2.73322
2.56565
2.50273
2.49353
2.49463
2.49687
2.51104
2.52173
2.45198
2.4049
2.38418
2.38026
2.37999
2.38261
2.38437
2.38522
2.37996
2.36801
2.35768
2.35185
2.34836
2.34596
2.34916
2.3458
2.34697
2.35214
2.36323
2.40159
2.43217
2.45452
2.49487
2.52975
2.56039
2.59038
2.64387
2.6787
2.7115
2.73729
2.74875
2.75661
2.77067
2.77563
2.81044
2.80052
2.78989
2.77782
2.76613
2.75567
2.74393
2.73164
2.71933
2.70715
2.69466
2.68254
2.67047
2.65868
2.64681
2.63487
2.62339
2.61196
2.6012
2.59039
2.58021
2.56995
2.56022
2.55049
2.54107
2.53172
2.52303
2.51434
2.50607
2.49773
2.48973
2.48165
2.47386
2.46595
2.45826
2.45045
2.44275
2.43495
2.42721
2.41938
2.41161
2.40381
2.39605
2.38828
2.38042
2.37254
2.36426
2.3559
2.34223
2.34212
2.34884
2.05853
2.22332
2.40401
2.61614
2.68793
2.74227
2.83727
2.95925
2.76314
2.70205
2.69263
2.74417
2.75689
2.7693
2.76511
2.70151
2.67079
2.65419
2.65318
2.65361
2.65413
2.66181
2.67
2.67271
2.67289
2.65919
2.64569
2.63383
2.62732
2.63061
2.63172
2.63903
2.65103
2.6528
2.68738
2.71316
2.72662
2.76426
2.78579
2.80542
2.81692
2.83323
2.85054
2.88766
2.87477
2.86219
2.85113
2.82393
2.80505
2.77796
2.74529
2.71159
2.67335
2.64129
2.61641
2.5905
2.56253
2.53844
2.52159
2.50602
2.49033
2.47528
2.46157
2.44811
2.43418
2.42073
2.40806
2.39549
2.38265
2.37043
2.35813
2.34677
2.33576
2.32537
2.3153
2.30657
2.29818
2.2907
2.28326
2.2763
2.26932
2.26248
2.25551
2.24852
2.24139
2.23425
2.22697
2.21967
2.21225
2.20485
2.19743
2.1901
2.18276
2.17537
2.16793
2.16024
2.15214
2.13963
2.13782
2.1442
1.8668
2.01779
2.1711
2.40982
2.53579
2.602
2.63894
2.76615
2.87768
2.87696
2.8908
2.84943
2.78447
2.83749
2.87248
2.90709
2.81342
2.7832
2.77986
2.78514
2.7897
2.79341
2.80116
2.80284
2.80318
2.79048
2.79136
2.78975
2.78183
2.78295
2.77971
2.77929
2.79722
2.80581
2.83241
2.85055
2.86064
2.93845
2.94895
2.94398
2.9304
2.90061
2.85836
2.8019
2.7418
2.67974
2.63363
2.58532
2.54395
2.50855
2.4728
2.44152
2.4067
2.3734
2.35379
2.33531
2.31562
2.2932
2.27553
2.26027
2.24593
2.23154
2.21914
2.20881
2.19892
2.18898
2.17958
2.17014
2.16037
2.15021
2.13968
2.1293
2.11963
2.11026
2.10091
2.09272
2.08508
2.07834
2.07184
2.06609
2.06049
2.05511
2.04965
2.04413
2.03843
2.03264
2.0267
2.02069
2.0146
2.00847
2.00231
1.99618
1.99004
1.98388
1.97762
1.97119
1.96424
1.95368
1.95108
1.95776
1.74042
1.80593
1.89998
2.07458
2.26648
2.41257
2.42825
2.48771
2.603
2.72701
2.79566
2.82628
2.81166
2.7816
2.78211
2.84663
2.86289
2.85639
2.85046
2.83453
2.78113
2.75217
2.76982
2.77172
2.77644
2.77926
2.77814
2.77007
2.76492
2.77151
2.78309
2.79638
2.83439
2.89262
2.91484
2.9108
2.91258
2.8861
2.82458
2.7347
2.64184
2.58801
2.50688
2.46038
2.4146
2.36319
2.3297
2.31076
2.2812
2.25899
2.23998
2.22095
2.20129
2.17907
2.16644
2.15472
2.14173
2.12498
2.11304
2.10181
2.0924
2.08252
2.07147
2.06048
2.05028
2.04171
2.03518
2.0286
2.02152
2.01371
2.00529
1.99646
1.98762
1.97886
1.97008
1.96275
1.95638
1.95034
1.9443
1.93864
1.93327
1.92834
1.92356
1.91881
1.91401
1.90912
1.90405
1.89881
1.89339
1.88785
1.88224
1.8766
1.87095
1.86527
1.85946
1.8535
1.84702
1.83772
1.83378
1.84085
1.76015
1.73547
1.77007
1.85911
1.97198
2.11786
2.19945
2.18709
2.27809
2.41223
2.5506
2.64187
2.69666
2.69498
2.6872
2.70053
2.73401
2.77719
2.79959
2.81453
2.80884
2.79682
2.78284
2.77087
2.76291
2.76862
2.76696
2.76321
2.75481
2.7563
2.77488
2.80145
2.84599
2.84203
2.81382
2.75389
2.67258
2.57716
2.4919
2.39911
2.35616
2.30596
2.25015
2.21145
2.177
2.1479
2.13075
2.12043
2.10833
2.0996
2.08629
2.07639
2.06123
2.05266
2.04458
2.03553
2.02507
2.01238
2.00791
2.00227
1.99455
1.98545
1.9741
1.96411
1.95705
1.95138
1.94552
1.93908
1.93228
1.92535
1.91836
1.9112
1.90373
1.89586
1.88752
1.88117
1.8758
1.87042
1.86502
1.8596
1.85438
1.84964
1.84505
1.84048
1.8359
1.83123
1.82645
1.82151
1.81641
1.81118
1.80584
1.80041
1.79496
1.7895
1.78398
1.77832
1.77217
1.76398
1.75828
1.76523
1.81997
1.73662
1.73396
1.77267
1.82456
1.89195
1.96816
1.95407
2.02765
2.14502
2.26292
2.36227
2.44703
2.48947
2.50011
2.53183
2.57479
2.62532
2.66531
2.70354
2.72308
2.7392
2.7461
2.75027
2.7473
2.74551
2.74235
2.74266
2.75058
2.75957
2.77521
2.77104
2.7498
2.71072
2.63578
2.5283
2.41233
2.28677
2.22129
2.1429
2.10909
2.06826
2.04706
2.02282
2.01936
2.00999
1.99803
1.99323
1.99449
1.99424
1.99107
1.98393
1.97381
1.9668
1.95991
1.95515
1.95064
1.94548
1.94009
1.93458
1.92488
1.91625
1.90928
1.90349
1.89844
1.89281
1.88623
1.87935
1.87335
1.86772
1.86192
1.85581
1.84932
1.84245
1.8361
1.83089
1.8257
1.82037
1.81489
1.80961
1.80482
1.80038
1.796
1.79156
1.78707
1.78244
1.77761
1.7726
1.76746
1.76219
1.75684
1.75144
1.74606
1.74071
1.73527
1.72966
1.72354
1.71589
1.70888
1.71578
1.89238
1.77763
1.73489
1.73564
1.75264
1.77222
1.80339
1.78633
1.80941
1.87344
1.96316
2.04101
2.12118
2.20559
2.24583
2.29389
2.34554
2.40007
2.45533
2.50828
2.55185
2.58896
2.6168
2.64541
2.66
2.68242
2.68932
2.70116
2.72882
2.72406
2.71487
2.69166
2.62579
2.49139
2.30856
2.18709
2.07373
2.0053
1.95406
1.92046
1.9099
1.90026
1.90514
1.91249
1.92929
1.91945
1.91533
1.91509
1.91217
1.91366
1.92405
1.92152
1.91518
1.91113
1.90425
1.90005
1.89922
1.89736
1.89364
1.88897
1.88058
1.87414
1.87058
1.86609
1.86066
1.85475
1.84827
1.84314
1.83856
1.83399
1.82902
1.82349
1.81748
1.81114
1.80544
1.80032
1.79538
1.79041
1.78553
1.78084
1.7763
1.77177
1.76723
1.76258
1.75781
1.75289
1.74781
1.74262
1.73737
1.73208
1.72675
1.72134
1.71592
1.71058
1.70519
1.69967
1.69372
1.68652
1.67914
1.68602
1.91492
1.83088
1.7634
1.73759
1.74172
1.73763
1.73085
1.7083
1.70708
1.724
1.77449
1.83465
1.89134
1.93948
1.98622
2.00836
2.05072
2.11151
2.17876
2.24831
2.30326
2.35957
2.40322
2.45441
2.48858
2.53466
2.5581
2.59053
2.66683
2.65104
2.60003
2.50816
2.35912
2.15534
2.01781
1.92708
1.85484
1.80824
1.76797
1.7565
1.74611
1.74638
1.75562
1.77143
1.80073
1.83888
1.88783
1.87584
1.85991
1.86464
1.86433
1.86632
1.87443
1.87519
1.87204
1.86749
1.86234
1.86077
1.8595
1.8582
1.85606
1.85162
1.84668
1.84069
1.83495
1.83052
1.82604
1.82182
1.81818
1.8144
1.80982
1.8042
1.79741
1.79143
1.78702
1.78264
1.77817
1.77358
1.76888
1.76403
1.75911
1.75416
1.74931
1.74453
1.73974
1.73491
1.72999
1.72506
1.72006
1.71489
1.7095
1.70394
1.69849
1.69309
1.68766
1.68209
1.67607
1.66874
1.66096
1.66772
1.91131
1.85509
1.79764
1.76055
1.74461
1.73121
1.71576
1.68916
1.65236
1.64792
1.66158
1.6914
1.72779
1.76047
1.79372
1.80499
1.82044
1.8578
1.90884
1.96486
2.02012
2.07894
2.13198
2.18709
2.24188
2.30391
2.35956
2.44113
2.48621
2.48337
2.39735
2.26475
2.07498
1.89117
1.82331
1.77633
1.73089
1.69459
1.66799
1.64815
1.63692
1.63393
1.6394
1.65098
1.67853
1.71312
1.75758
1.8164
1.87902
1.86121
1.82336
1.826
1.83048
1.84116
1.85326
1.8476
1.84571
1.84338
1.8404
1.84122
1.84039
1.8369
1.83159
1.82667
1.82066
1.81584
1.81258
1.80939
1.80563
1.80082
1.7947
1.78867
1.7844
1.78035
1.7762
1.7719
1.76732
1.76226
1.75693
1.75175
1.74704
1.74243
1.73787
1.73329
1.72864
1.72384
1.71888
1.71373
1.70842
1.70316
1.69807
1.69304
1.688
1.68287
1.67759
1.67201
1.6659
1.65847
1.65052
1.65749
1.89956
1.85878
1.81344
1.78842
1.75464
1.73986
1.719
1.68975
1.65481
1.6227
1.61276
1.62446
1.64106
1.65545
1.67104
1.67816
1.68508
1.69646
1.72423
1.75935
1.79718
1.8363
1.87791
1.92139
1.97023
2.03844
2.11982
2.36075
2.34311
2.25728
2.15473
2.02055
1.84879
1.76681
1.72625
1.68731
1.65403
1.62805
1.60591
1.58263
1.57021
1.56402
1.56519
1.57196
1.58884
1.60729
1.6439
1.69434
1.75195
1.85799
1.86431
1.84191
1.81821
1.8167
1.81787
1.82359
1.8323
1.82839
1.82798
1.82669
1.82495
1.82088
1.81445
1.81143
1.80952
1.80662
1.80266
1.79772
1.79236
1.78709
1.78158
1.77673
1.77298
1.76904
1.7648
1.76007
1.75453
1.74953
1.74544
1.74134
1.73723
1.73301
1.72856
1.7238
1.71868
1.71315
1.70755
1.70268
1.69811
1.69361
1.68908
1.68446
1.6797
1.67471
1.66946
1.66388
1.65782
1.65053
1.64278
1.64991
1.89115
1.85484
1.81872
1.79584
1.76798
1.75153
1.72771
1.69778
1.66281
1.62919
1.59933
1.59969
1.6041
1.60962
1.61828
1.62076
1.6127
1.61073
1.62066
1.64084
1.66538
1.69041
1.71699
1.74946
1.79845
1.86602
2.00241
2.25584
2.16747
2.09296
1.99679
1.86403
1.75712
1.71505
1.67365
1.6354
1.60488
1.57912
1.55383
1.54295
1.53728
1.52906
1.52674
1.5286
1.53318
1.53998
1.56081
1.58832
1.63203
1.6993
1.77544
1.88252
1.86013
1.81738
1.79511
1.79836
1.80294
1.8151
1.81189
1.80854
1.8055
1.7997
1.7996
1.79873
1.79668
1.79215
1.78729
1.78205
1.77609
1.77182
1.76823
1.76492
1.76145
1.75772
1.75352
1.74862
1.74332
1.73869
1.73479
1.73077
1.72661
1.72226
1.71773
1.71302
1.70817
1.70325
1.69863
1.69406
1.68944
1.68477
1.68002
1.67514
1.67012
1.66497
1.65967
1.65418
1.64831
1.64124
1.63368
1.64088
1.88596
1.84674
1.81605
1.79108
1.77435
1.75943
1.7397
1.71322
1.67818
1.64182
1.61098
1.59074
1.58585
1.58771
1.59062
1.58695
1.57863
1.57293
1.56365
1.56816
1.58157
1.59935
1.61903
1.6509
1.6984
1.79066
1.95392
2.14473
2.03876
1.98983
1.90661
1.79834
1.75368
1.70882
1.66273
1.62706
1.59217
1.56342
1.53818
1.52486
1.51027
1.51024
1.5086
1.50871
1.50666
1.50737
1.51285
1.52366
1.54733
1.58373
1.63127
1.70381
1.81358
1.8492
1.80992
1.79455
1.77725
1.77942
1.78166
1.78722
1.78677
1.78482
1.77958
1.77878
1.77695
1.77294
1.76806
1.76431
1.75885
1.75639
1.75391
1.75108
1.74769
1.74349
1.73848
1.73282
1.72849
1.72452
1.72043
1.71622
1.71186
1.70758
1.70335
1.69911
1.69484
1.69049
1.68604
1.68151
1.67685
1.67202
1.66702
1.66187
1.65664
1.6514
1.64614
1.64075
1.63501
1.62807
1.6207
1.62816
1.87998
1.83899
1.81264
1.78649
1.77292
1.75736
1.74301
1.72282
1.69475
1.66276
1.62766
1.6042
1.58463
1.57437
1.57497
1.57262
1.5673
1.55759
1.54143
1.53157
1.53906
1.55368
1.56928
1.60126
1.67407
1.81447
2.10314
2.05413
1.98915
1.92895
1.84859
1.79959
1.75656
1.71332
1.67168
1.64079
1.61111
1.5873
1.56704
1.54847
1.52942
1.51308
1.49572
1.4949
1.49435
1.49451
1.49382
1.49242
1.49669
1.50529
1.52734
1.56793
1.63256
1.71654
1.84627
1.82678
1.78492
1.76545
1.75609
1.75934
1.76698
1.76999
1.76673
1.76331
1.75986
1.75717
1.75192
1.74884
1.74518
1.74038
1.73651
1.73302
1.72959
1.72589
1.72172
1.71721
1.71259
1.70813
1.70398
1.69968
1.69519
1.69055
1.68582
1.68104
1.6764
1.67195
1.66746
1.66285
1.65808
1.65309
1.64793
1.64266
1.63738
1.63231
1.62722
1.62204
1.61652
1.60979
1.60275
1.61054
1.879
1.83661
1.80824
1.77978
1.76499
1.75215
1.74008
1.72248
1.70021
1.67521
1.6469
1.61916
1.59877
1.57624
1.57325
1.57164
1.56608
1.55635
1.54243
1.52188
1.52846
1.54039
1.56109
1.61116
1.72623
1.94409
2.06291
1.96639
1.92997
1.887
1.8386
1.80171
1.76382
1.7271
1.69426
1.66658
1.63988
1.61728
1.59523
1.57246
1.54906
1.53382
1.52142
1.50648
1.49394
1.48144
1.47983
1.4756
1.47057
1.46603
1.47381
1.4886
1.52211
1.57606
1.65238
1.75611
1.84209
1.80257
1.77722
1.74141
1.74984
1.75105
1.7612
1.75776
1.75441
1.75257
1.74862
1.74423
1.74321
1.74184
1.73904
1.73507
1.72934
1.72325
1.71806
1.7139
1.71002
1.70596
1.70133
1.69631
1.69109
1.68592
1.68107
1.67626
1.67138
1.66638
1.6612
1.6559
1.6507
1.64546
1.64014
1.63474
1.62925
1.62404
1.6188
1.61338
1.60753
1.60036
1.59234
1.59977
1.87565
1.83477
1.80728
1.78093
1.75997
1.74584
1.73536
1.72013
1.70074
1.67695
1.65499
1.6297
1.61211
1.59128
1.57426
1.57277
1.56782
1.56064
1.5473
1.52684
1.53398
1.54644
1.58226
1.67299
1.84014
2.05229
1.9656
1.93145
1.90326
1.87407
1.84407
1.81344
1.78048
1.7485
1.71829
1.69022
1.66441
1.64217
1.61938
1.59459
1.57702
1.55937
1.53828
1.52244
1.50719
1.49071
1.47609
1.45652
1.45383
1.45152
1.45692
1.45717
1.46735
1.48768
1.53082
1.59821
1.68074
1.82172
1.81265
1.76114
1.75512
1.73387
1.74021
1.74217
1.74501
1.7449
1.74379
1.7358
1.73414
1.7325
1.72962
1.72555
1.72
1.71213
1.70781
1.70515
1.70224
1.69868
1.69425
1.68857
1.68281
1.67874
1.67451
1.67005
1.66521
1.65999
1.65446
1.64883
1.64348
1.63809
1.63259
1.62701
1.62137
1.61604
1.61074
1.60523
1.59919
1.5918
1.58339
1.59093
1.87624
1.83461
1.80726
1.78392
1.75834
1.7441
1.73301
1.71852
1.70078
1.67916
1.6565
1.63341
1.61276
1.60063
1.58012
1.57649
1.57158
1.56347
1.54919
1.54974
1.55421
1.57368
1.64373
1.7894
2.04796
1.98573
1.9174
1.90293
1.8869
1.86985
1.84951
1.82613
1.799
1.7702
1.74107
1.71233
1.68723
1.66369
1.63946
1.61841
1.59903
1.57637
1.55632
1.53924
1.51904
1.50301
1.48456
1.47038
1.46103
1.44794
1.44862
1.44839
1.44866
1.45098
1.46582
1.48932
1.53616
1.61015
1.70414
1.8344
1.80141
1.7662
1.71753
1.71842
1.72277
1.73049
1.73238
1.73264
1.73046
1.72386
1.71477
1.71408
1.71243
1.70998
1.70599
1.7013
1.69658
1.69131
1.68589
1.68157
1.67766
1.67413
1.67023
1.6658
1.6608
1.65546
1.65017
1.64494
1.63978
1.63446
1.62882
1.62291
1.61727
1.61187
1.60629
1.60033
1.5937
1.5857
1.5762
1.58351
1.87859
1.83554
1.80517
1.78554
1.75852
1.74254
1.7324
1.71767
1.70035
1.68103
1.66093
1.63933
1.61667
1.59877
1.58569
1.57826
1.56946
1.55906
1.56057
1.56781
1.58316
1.63874
1.76093
2.00677
1.97936
1.91473
1.90275
1.89269
1.88391
1.87268
1.8568
1.83678
1.81353
1.78801
1.76096
1.73241
1.70706
1.68028
1.65746
1.6372
1.61485
1.59193
1.57277
1.55142
1.53628
1.52093
1.50429
1.48896
1.47519
1.46558
1.45455
1.4417
1.43945
1.43425
1.43523
1.43543
1.45219
1.49099
1.55301
1.64337
1.77263
1.79726
1.75071
1.73652
1.69941
1.70379
1.71169
1.72212
1.72093
1.71888
1.71414
1.70681
1.70352
1.70101
1.69824
1.69471
1.69018
1.68534
1.6798
1.67588
1.67218
1.66844
1.66456
1.66006
1.655
1.64965
1.64476
1.64
1.63505
1.62989
1.62442
1.61876
1.61298
1.60743
1.60164
1.59546
1.58855
1.58036
1.57046
1.57779
1.88721
1.84211
1.80664
1.7872
1.76355
1.7398
1.732
1.71962
1.70231
1.6825
1.66477
1.64713
1.62578
1.59967
1.58905
1.57668
1.56459
1.56695
1.5756
1.58874
1.63827
1.7475
1.9826
1.98362
1.9285
1.90847
1.89693
1.89028
1.88303
1.87295
1.85905
1.84113
1.82006
1.79655
1.77105
1.74522
1.71988
1.69393
1.67309
1.65136
1.62841
1.60846
1.58775
1.56846
1.55471
1.53811
1.52099
1.50491
1.49248
1.47867
1.46581
1.45299
1.43904
1.42702
1.42479
1.41659
1.42131
1.43263
1.45917
1.50421
1.57256
1.65545
1.79928
1.78194
1.73789
1.71775
1.68829
1.69158
1.69687
1.70399
1.7031
1.70193
1.69739
1.68732
1.68475
1.68371
1.68188
1.67903
1.67461
1.66808
1.66422
1.66088
1.65725
1.65301
1.64797
1.64232
1.63614
1.63143
1.62682
1.62201
1.61691
1.61158
1.60599
1.60037
1.59468
1.58866
1.58196
1.57404
1.56422
1.57148
1.90326
1.85568
1.80949
1.78339
1.76713
1.74063
1.7315
1.72295
1.70687
1.68574
1.66767
1.65295
1.63512
1.60901
1.58958
1.56476
1.56936
1.58022
1.59292
1.63547
1.7347
1.94581
1.98988
1.92511
1.91337
1.89815
1.88752
1.8785
1.86995
1.86066
1.84961
1.83586
1.81854
1.79841
1.77549
1.75201
1.72626
1.70486
1.68355
1.66179
1.63984
1.62059
1.60033
1.58487
1.56774
1.54924
1.53237
1.51753
1.50267
1.48738
1.47622
1.46402
1.4504
1.43556
1.42279
1.41137
1.40913
1.41325
1.41497
1.42664
1.45665
1.51469
1.5948
1.68643
1.79138
1.76054
1.72887
1.67743
1.67757
1.68381
1.68932
1.69275
1.69215
1.68955
1.68228
1.67491
1.67228
1.67035
1.6677
1.66422
1.65988
1.65594
1.65175
1.64652
1.64008
1.6339
1.62822
1.62304
1.61821
1.61326
1.60811
1.60291
1.59773
1.59238
1.5868
1.58084
1.57412
1.56608
1.55623
1.56379
1.913
1.87224
1.8262
1.78773
1.76874
1.74231
1.72572
1.7242
1.71157
1.69158
1.66886
1.65785
1.64201
1.61999
1.59458
1.57032
1.57844
1.59608
1.63451
1.72477
1.90221
1.99303
1.91648
1.90926
1.8971
1.88347
1.87332
1.86356
1.85505
1.84663
1.83739
1.82649
1.813
1.79695
1.7783
1.75723
1.73382
1.71173
1.6896
1.66708
1.64899
1.63008
1.61276
1.59518
1.57613
1.55709
1.54074
1.52423
1.50784
1.49784
1.48598
1.47304
1.45984
1.446
1.43097
1.41742
1.40259
1.39771
1.39856
1.40097
1.40514
1.42973
1.4706
1.53285
1.61434
1.74994
1.75452
1.7091
1.70133
1.66608
1.66888
1.6763
1.68446
1.68425
1.6826
1.67619
1.66744
1.66116
1.65936
1.65665
1.65326
1.64916
1.64484
1.63936
1.63229
1.62637
1.62196
1.61726
1.61226
1.60731
1.6022
1.59664
1.59098
1.58511
1.57901
1.57267
1.56575
1.55761
1.54787
1.55577
1.97282
1.88243
1.84367
1.80008
1.77467
1.7506
1.71899
1.7181
1.71429
1.69874
1.67321
1.6573
1.6472
1.62863
1.59622
1.59303
1.60375
1.62901
1.71308
1.86181
2.02057
1.92595
1.91778
1.90216
1.88272
1.87554
1.8671
1.85664
1.84503
1.83603
1.8275
1.81859
1.80824
1.79557
1.78044
1.76249
1.74313
1.72159
1.69835
1.67837
1.65913
1.63976
1.62164
1.60221
1.58529
1.56843
1.55237
1.53577
1.52168
1.5078
1.49482
1.48105
1.46932
1.45616
1.44107
1.42799
1.41594
1.40347
1.39351
1.39197
1.38642
1.39314
1.40788
1.42956
1.47157
1.53863
1.62151
1.76302
1.74459
1.70642
1.68247
1.65314
1.65533
1.66319
1.6663
1.66578
1.66246
1.65698
1.64791
1.64535
1.64259
1.63935
1.63562
1.63106
1.62481
1.61818
1.61322
1.60917
1.60457
1.59957
1.59423
1.58836
1.58258
1.57651
1.57014
1.56369
1.55692
1.54899
1.53987
1.54797
1.98467
1.91016
1.85532
1.82096
1.78437
1.76063
1.72291
1.71133
1.71216
1.70234
1.68348
1.659
1.64914
1.63415
1.61236
1.62174
1.63957
1.7089
1.84893
2.04467
1.95078
1.92972
1.90479
1.88024
1.87612
1.86999
1.86172
1.85055
1.83794
1.8296
1.82137
1.81309
1.80409
1.79359
1.78115
1.76635
1.74929
1.73046
1.71032
1.68974
1.66901
1.64994
1.63066
1.61383
1.59643
1.57941
1.56334
1.54699
1.53228
1.51702
1.50384
1.49041
1.47693
1.46314
1.44922
1.43497
1.4193
1.40814
1.3973
1.38461
1.37851
1.37944
1.37924
1.37984
1.39451
1.42727
1.48383
1.56342
1.66821
1.74151
1.70514
1.68503
1.65389
1.63812
1.64418
1.65312
1.65381
1.65175
1.64702
1.64032
1.63606
1.63121
1.62646
1.62175
1.61662
1.61112
1.60623
1.60059
1.59449
1.58987
1.585
1.57965
1.57383
1.56771
1.56069
1.55422
1.54789
1.54047
1.53163
1.53959
2.09435
1.97503
1.86752
1.82127
1.78516
1.76169
1.73213
1.70988
1.70895
1.70073
1.68407
1.65715
1.64751
1.6429
1.646
1.65711
1.71482
1.8424
2.05892
1.99691
1.96
1.90208
1.88838
1.88457
1.87837
1.87019
1.85985
1.84757
1.83571
1.82696
1.81829
1.8097
1.80099
1.79159
1.78096
1.76848
1.7539
1.73749
1.71921
1.69988
1.67994
1.66049
1.6425
1.62422
1.60689
1.58974
1.57312
1.5578
1.54228
1.52852
1.51462
1.50193
1.48852
1.47536
1.46193
1.4475
1.42993
1.41863
1.4084
1.39582
1.38525
1.37252
1.37192
1.36533
1.36849
1.37475
1.3981
1.43947
1.50365
1.58293
1.72305
1.71894
1.6809
1.6643
1.62745
1.6264
1.63091
1.63518
1.63592
1.63492
1.63139
1.62426
1.61361
1.61083
1.60691
1.6024
1.59755
1.59179
1.58459
1.57878
1.57472
1.56996
1.5647
1.55889
1.55258
1.54564
1.53866
1.53116
1.52263
1.53058
2.19254
1.92256
1.88683
1.82784
1.79068
1.76633
1.73991
1.71037
1.706
1.70266
1.6879
1.6574
1.65283
1.66716
1.68268
1.73603
1.8514
2.07076
2.02355
1.98376
1.92091
1.90743
1.90265
1.8931
1.882
1.86932
1.85659
1.84596
1.83561
1.82593
1.81734
1.80841
1.79945
1.79023
1.78032
1.76911
1.75624
1.74147
1.72511
1.70743
1.68898
1.67003
1.65161
1.63377
1.61594
1.59824
1.58133
1.56522
1.54998
1.53583
1.52152
1.50765
1.49403
1.48039
1.46649
1.4522
1.43889
1.42566
1.41486
1.40393
1.39278
1.38189
1.37042
1.35695
1.35412
1.35692
1.36076
1.37523
1.39942
1.44836
1.52797
1.6148
1.71998
1.6904
1.65964
1.63185
1.60772
1.61073
1.62036
1.62172
1.61896
1.61413
1.6075
1.59877
1.59319
1.58958
1.58572
1.58144
1.57603
1.56986
1.56423
1.56072
1.5559
1.55004
1.54325
1.53627
1.52903
1.52116
1.51304
1.521
2.49855
2.15546
1.91682
1.84829
1.80757
1.78093
1.75425
1.72031
1.70846
1.70603
1.69728
1.67438
1.6789
1.69841
1.75788
1.87577
2.09563
2.05535
2.00773
1.93585
1.91789
1.91634
1.90785
1.89631
1.88332
1.86888
1.85457
1.8433
1.8329
1.82364
1.81547
1.80707
1.79813
1.78873
1.77862
1.76769
1.75556
1.74221
1.72747
1.71145
1.69453
1.67697
1.65908
1.64109
1.62328
1.60571
1.58862
1.57163
1.55652
1.54197
1.52724
1.51218
1.49695
1.48223
1.46826
1.4542
1.44232
1.43061
1.4194
1.40776
1.39709
1.3854
1.37557
1.36536
1.35337
1.34891
1.34851
1.34935
1.35582
1.37888
1.41524
1.46937
1.54825
1.68931
1.68754
1.64639
1.63686
1.61278
1.59959
1.60086
1.60733
1.60636
1.60237
1.59589
1.58823
1.58116
1.57637
1.57049
1.56534
1.5603
1.55499
1.55074
1.54601
1.54017
1.53277
1.52418
1.51767
1.51089
1.50361
1.51128
2.34295
2.34193
2.01302
1.90417
1.81957
1.78749
1.75849
1.73171
1.70339
1.68239
1.6905
1.70183
1.71499
1.76987
1.89284
2.12506
2.0921
2.0412
1.9643
1.93446
1.93142
1.92251
1.91176
1.89943
1.88554
1.87094
1.85844
1.84584
1.8345
1.82434
1.81554
1.8066
1.79733
1.78743
1.77692
1.7657
1.75372
1.74095
1.72726
1.7127
1.69709
1.68057
1.66336
1.64572
1.62781
1.61023
1.59312
1.57634
1.56136
1.54663
1.53226
1.51746
1.5021
1.48665
1.47116
1.45676
1.44457
1.4341
1.42283
1.41113
1.40154
1.39264
1.38348
1.37344
1.36279
1.35403
1.34242
1.34434
1.34734
1.35128
1.36046
1.38435
1.43381
1.5036
1.58173
1.70638
1.68689
1.64791
1.62632
1.58805
1.58843
1.59471
1.59883
1.59733
1.59348
1.58691
1.57534
1.56003
1.55243
1.5495
1.54642
1.5419
1.53619
1.52931
1.52158
1.51093
1.5055
1.50032
1.49509
1.50235
1.41559
2.22955
2.1202
1.88613
1.85145
1.79941
1.76377
1.73593
1.70804
1.69134
1.70481
1.7301
1.79375
1.91668
2.15374
2.12342
2.07224
1.99569
1.96128
1.95674
1.94628
1.93315
1.91868
1.904
1.89046
1.87759
1.86472
1.85198
1.83919
1.82678
1.81575
1.8052
1.79449
1.7834
1.77169
1.75961
1.74724
1.73445
1.72147
1.70795
1.69379
1.67874
1.66297
1.64646
1.62963
1.61317
1.5968
1.58135
1.56638
1.55177
1.5372
1.5225
1.50779
1.49346
1.47884
1.46611
1.45391
1.44081
1.4319
1.42393
1.41468
1.40498
1.39426
1.38509
1.37481
1.36723
1.36113
1.35435
1.34546
1.34943
1.3506
1.35721
1.37646
1.40649
1.45684
1.53579
1.63872
1.69229
1.65643
1.63818
1.61349
1.58712
1.58887
1.59311
1.59022
1.58362
1.57401
1.55851
1.54562
1.54569
1.54411
1.54032
1.53457
1.52579
1.51464
1.50355
1.4969
1.48967
1.48622
1.49263
1.07761
1.70543
2.42271
2.10456
1.88287
1.83007
1.77187
1.74553
1.71917
1.72501
1.74004
1.80482
1.94298
2.18943
2.14811
2.09392
2.0144
1.97628
1.97367
1.9658
1.95303
1.93663
1.91929
1.90552
1.89308
1.88055
1.86822
1.85561
1.84246
1.82876
1.81504
1.80218
1.78961
1.777
1.76431
1.75146
1.73915
1.72686
1.71456
1.70207
1.68914
1.67565
1.66139
1.64654
1.6312
1.61565
1.60063
1.5858
1.57067
1.55569
1.54068
1.5261
1.51176
1.49801
1.48431
1.47203
1.4596
1.44908
1.44067
1.43221
1.42358
1.41447
1.40583
1.39673
1.38846
1.38263
1.37823
1.37272
1.36703
1.36018
1.35502
1.3567
1.35951
1.36899
1.39569
1.44294
1.50249
1.58785
1.71241
1.70536
1.66104
1.64334
1.61281
1.59503
1.59292
1.58966
1.58289
1.57261
1.55514
1.55305
1.54959
1.54455
1.53796
1.52873
1.51333
1.49913
1.4951
1.48999
1.48362
1.48839
1.03991
1.27774
2.24592
2.27126
1.99038
1.87857
1.80062
1.73811
1.74198
1.76258
1.82783
1.97014
2.22723
2.15976
2.10957
2.03372
1.99126
1.98901
1.98432
1.97427
1.95891
1.93939
1.9193
1.90489
1.8915
1.87807
1.86478
1.85145
1.83754
1.82289
1.80774
1.79385
1.78089
1.7681
1.75529
1.74245
1.72996
1.71862
1.70721
1.69557
1.68373
1.67152
1.65879
1.64549
1.63182
1.61795
1.60437
1.59078
1.57711
1.56342
1.54966
1.53608
1.52236
1.50943
1.49661
1.48486
1.47339
1.46294
1.45565
1.44876
1.44153
1.43418
1.42648
1.41928
1.41207
1.40635
1.40373
1.40047
1.39746
1.39401
1.38988
1.38325
1.38529
1.38923
1.39848
1.4127
1.44286
1.49735
1.57662
1.68727
1.76689
1.72651
1.68773
1.65854
1.62162
1.6093
1.60443
1.59649
1.58519
1.57554
1.56877
1.56079
1.55143
1.53942
1.52024
1.50084
1.4983
1.49401
1.48555
1.48884
1.00854
1.07123
1.3811
2.14604
2.08332
1.87166
1.80791
1.74567
1.76374
1.84126
2.00531
2.25102
2.16746
2.12765
2.05791
2.00923
2.00489
1.99772
1.98794
1.97544
1.95711
1.93877
1.92362
1.90771
1.89156
1.87592
1.8611
1.84638
1.83156
1.81637
1.80106
1.78686
1.77369
1.76072
1.74783
1.73511
1.72228
1.71165
1.70154
1.69109
1.68034
1.66927
1.65767
1.6456
1.63333
1.62129
1.60928
1.59719
1.58497
1.57253
1.55982
1.54701
1.53436
1.52233
1.51139
1.50127
1.49173
1.48296
1.47824
1.47384
1.46934
1.46432
1.45961
1.45482
1.4496
1.44788
1.44666
1.44512
1.44408
1.44277
1.44173
1.44037
1.43978
1.43696
1.43969
1.44403
1.45197
1.46624
1.51371
1.58242
1.67501
1.82106
1.79236
1.73141
1.70855
1.67535
1.64269
1.63641
1.62708
1.61616
1.60422
1.59093
1.57771