/*--------------------------------*- C++ -*----------------------------------*\
| =========                 |                                                 |
| \\      /  F ield         | OpenFOAM: The Open Source CFD Toolbox           |
|  \\    /   O peration     | Version:  v2106                                 |
|   \\  /    A nd           | Website:  www.openfoam.com                      |
|    \\/     M anipulation  |                                                 |
\*---------------------------------------------------------------------------*/
FoamFile
{
    version     2.0;
    format      ascii;
    arch        "LSB;label=32;scalar=64";
    class       volVectorField;
    location    "9";
    object      U;
}
// * * * * * * * * * * * * * * * * * * * * * * * * * * * * * * * * * * * * * //

dimensions      [0 1 -1 0 0 0 0];

internalField   nonuniform List<vector> 
5250
(
(3 -1.9308e-15 0)
(3 3.31613e-15 0)
(3 7.32307e-14 0)
(3 1.66238e-13 0)
(3 5.50597e-12 0)
(3 2.30029e-11 0)
(3 4.44948e-10 0)
(3 2.04024e-09 0)
(3 3.4989e-08 0)
(3.00001 1.77036e-07 0)
(3.00007 2.66046e-06 0)
(3.00068 1.69347e-05 0)
(3.00619 0.000191622 0)
(3.06435 0.0018921 0)
(2.6724 0.0017569 0)
(1.16305 0.0406716 0)
(0.285153 0.0167792 0)
(0.539046 0.0200798 0)
(0.436988 0.020259 0)
(0.370275 0.0201906 0)
(0.320451 0.0219722 0)
(0.253231 0.0237732 0)
(0.190895 0.0258767 0)
(0.117693 0.0297464 0)
(0.0453172 0.0376643 0)
(3 1.94426e-15 0)
(3 -2.05683e-15 0)
(3 2.48257e-13 0)
(3 -4.37631e-13 0)
(3 2.01809e-11 0)
(3 3.86834e-11 0)
(3 1.55298e-09 0)
(3 4.49181e-09 0)
(3 1.17324e-07 0)
(3.00001 4.33302e-07 0)
(3.00007 8.74318e-06 0)
(3.00068 4.71386e-05 0)
(3.00576 0.000629736 0)
(3.06492 0.00609183 0)
(2.68279 0.00851472 0)
(1.18926 0.123424 0)
(0.273975 0.0491831 0)
(0.53703 0.0596038 0)
(0.432616 0.0645909 0)
(0.366174 0.068137 0)
(0.315974 0.0740265 0)
(0.248339 0.0790241 0)
(0.185923 0.0852175 0)
(0.110977 0.0905589 0)
(0.0391176 0.0982473 0)
(3 1.01062e-14 0)
(3 -1.77721e-14 0)
(3 4.4699e-13 0)
(3 -3.43962e-12 0)
(3 3.64952e-11 0)
(3 -9.83131e-12 0)
(3 2.71977e-09 0)
(3 2.68709e-09 0)
(3 2.08037e-07 0)
(3.00001 2.81361e-07 0)
(3.00006 1.58592e-05 0)
(3.0007 3.98834e-05 0)
(3.00483 0.00107388 0)
(3.06621 0.00999939 0)
(2.7094 0.0161746 0)
(1.27606 0.20719 0)
(0.265034 0.087685 0)
(0.539701 0.09776 0)
(0.432066 0.105388 0)
(0.366092 0.10914 0)
(0.317714 0.118269 0)
(0.251475 0.126704 0)
(0.187922 0.137994 0)
(0.112533 0.150797 0)
(0.0403732 0.162149 0)
(3 -6.17113e-15 0)
(3 -1.00804e-13 0)
(3 3.48251e-13 0)
(3 -2.58533e-11 0)
(3 1.38106e-10 0)
(3 -5.60845e-10 0)
(3 7.6427e-09 0)
(3 -2.0947e-08 0)
(3 4.34852e-07 0)
(3.00001 -1.48993e-06 0)
(3.00004 2.30439e-05 0)
(3.00079 -6.23563e-05 0)
(3.0036 0.00146464 0)
(3.06727 0.0130232 0)
(2.74538 0.0238916 0)
(1.40851 0.282675 0)
(0.265056 0.134959 0)
(0.549893 0.139855 0)
(0.44267 0.150961 0)
(0.371731 0.154514 0)
(0.322302 0.168749 0)
(0.254664 0.18249 0)
(0.190395 0.199839 0)
(0.117312 0.212803 0)
(0.040512 0.226517 0)
(3 1.53978e-15 0)
(3 5.7532e-14 0)
(3 3.45863e-13 0)
(3 4.60825e-12 0)
(3 4.78879e-11 0)
(3 3.93196e-10 0)
(3 4.13737e-09 0)
(3 3.50083e-08 0)
(3 3.33634e-07 0)
(3.00002 2.93144e-06 0)
(3.00001 2.63973e-05 0)
(3.00089 -0.000598601 0)
(3.00222 0.00192573 0)
(3.06737 0.0151711 0)
(2.78993 0.0322673 0)
(1.58004 0.339586 0)
(0.282016 0.187717 0)
(0.565018 0.182975 0)
(0.463138 0.195269 0)
(0.382872 0.201283 0)
(0.334421 0.215621 0)
(0.267012 0.232809 0)
(0.204023 0.251146 0)
(0.125867 0.277248 0)
(0.0428992 0.295486 0)
(3 -2.32602e-14 0)
(3 1.84326e-13 0)
(3 5.74493e-13 0)
(3 4.96085e-11 0)
(3 -1.70431e-11 0)
(3 -4.20896e-10 0)
(3 2.10369e-09 0)
(3 -5.17317e-08 0)
(3 3.70737e-07 0)
(3.00001 -6.94891e-06 0)
(3.00003 6.42562e-05 0)
(3.0005 -0.00145752 0)
(3.00092 0.00207107 0)
(3.06582 0.015757 0)
(2.83854 0.0358964 0)
(1.81362 0.378526 0)
(0.319054 0.25338 0)
(0.585834 0.23264 0)
(0.494242 0.247384 0)
(0.402555 0.251883 0)
(0.351479 0.267482 0)
(0.281308 0.288857 0)
(0.212043 0.320037 0)
(0.133497 0.347731 0)
(0.0482735 0.369858 0)
(3 -2.59115e-13 0)
(3 3.56618e-13 0)
(3 -1.80451e-12 0)
(3 5.96628e-12 0)
(3 -4.31481e-11 0)
(3 -1.08791e-09 0)
(3 8.31597e-09 0)
(3 -1.47608e-08 0)
(3 5.77723e-07 0)
(3 -2.6441e-06 0)
(3.00001 2.45639e-05 0)
(3.00047 0.000154719 0)
(2.99974 0.00157168 0)
(3.06142 0.0138321 0)
(2.88721 0.0332131 0)
(2.08204 0.366063 0)
(0.406718 0.325683 0)
(0.623671 0.288064 0)
(0.546771 0.296379 0)
(0.437593 0.310654 0)
(0.388008 0.318518 0)
(0.305111 0.34747 0)
(0.256116 0.37294 0)
(0.143674 0.421598 0)
(0.0717464 0.45364 0)
(3 -2.8849e-14 0)
(3 8.61943e-14 0)
(3 -8.73104e-13 0)
(3 1.95439e-12 0)
(3 -5.73327e-11 0)
(3 -3.72598e-10 0)
(3 6.45318e-09 0)
(3 -1.07019e-09 0)
(3 3.21438e-07 0)
(3.00002 7.96827e-07 0)
(2.99993 1.77572e-05 0)
(3.00089 0.000101405 0)
(2.99893 0.00125328 0)
(3.05435 0.0123893 0)
(2.92941 0.0450597 0)
(2.20989 0.304214 0)
(0.497187 0.392124 0)
(0.654932 0.357646 0)
(0.592924 0.366276 0)
(0.494726 0.371184 0)
(0.422568 0.382085 0)
(0.353756 0.403806 0)
(0.258995 0.465433 0)
(0.17334 0.508674 0)
(0.0723389 0.559198 0)
(3 2.70247e-14 0)
(3 -4.07945e-13 0)
(3 1.37555e-13 0)
(3 9.47138e-12 0)
(3 7.09244e-11 0)
(3 8.10266e-10 0)
(3 -9.10249e-09 0)
(3 -7.05272e-09 0)
(3 2.04616e-07 0)
(3.00002 1.03051e-06 0)
(2.99993 1.46162e-05 0)
(3.0008 0.000107755 0)
(2.9986 0.00117749 0)
(3.04554 0.0102976 0)
(2.97193 0.0552429 0)
(2.32924 0.258827 0)
(0.585862 0.437298 0)
(0.676392 0.410775 0)
(0.641247 0.410263 0)
(0.549192 0.445847 0)
(0.483237 0.443657 0)
(0.392728 0.483448 0)
(0.330066 0.532465 0)
(0.232461 0.587945 0)
(0.146078 0.683682 0)
(3 4.90794e-14 0)
(3 -2.6202e-14 0)
(3 1.41462e-12 0)
(3 4.38171e-12 0)
(3 1.03557e-10 0)
(3 6.42813e-10 0)
(3 -3.03818e-09 0)
(3 3.2254e-08 0)
(3 -2.21528e-08 0)
(3.00002 1.80995e-06 0)
(2.99988 5.74416e-06 0)
(3.00101 0.000125648 0)
(2.99706 0.000839479 0)
(3.047 0.0101137 0)
(3.00686 0.0582562 0)
(2.45302 0.229713 0)
(0.674539 0.4859 0)
(0.680218 0.44694 0)
(0.666737 0.469758 0)
(0.615297 0.498549 0)
(0.550089 0.513335 0)
(0.453341 0.559555 0)
(0.382081 0.625819 0)
(0.301908 0.70697 0)
(0.0954091 0.918919 0)
(3 1.58075e-14 0)
(3 3.8054e-13 0)
(3 5.18645e-12 0)
(3 -6.64483e-12 0)
(3 1.37412e-10 0)
(3 -5.84015e-10 0)
(3 2.49881e-09 0)
(3 2.06021e-07 0)
(3 -1.37557e-07 0)
(3 2.22811e-06 0)
(3.00001 6.42364e-06 0)
(3.00018 -0.000203362 0)
(3.00048 0.00121371 0)
(3.01802 -0.0411226 0)
(3.03068 0.0668024 0)
(2.57446 0.221386 0)
(0.836092 0.548825 0)
(0.641829 0.449553 0)
(0.686438 0.476826 0)
(0.660185 0.568615 0)
(0.618414 0.585435 0)
(0.532782 0.636001 0)
(0.472807 0.709903 0)
(0.483056 0.810596 0)
(0.417349 1.09319 0)
(3 6.63598e-15 0)
(3 3.16252e-14 0)
(3 1.56158e-13 0)
(3 2.31249e-12 0)
(3 2.39161e-11 0)
(3 2.21212e-10 0)
(3 1.42954e-09 0)
(3 1.67273e-08 0)
(3 1.22978e-07 0)
(2.99999 1.29579e-06 0)
(3.00007 1.03199e-05 0)
(2.99973 0.000105071 0)
(3.00247 0.000828772 0)
(2.99975 0.00860258 0)
(3.06494 0.0587638 0)
(2.70599 0.217433 0)
(1.09683 0.645356 0)
(0.56956 0.461216 0)
(0.671578 0.49345 0)
(0.667661 0.586546 0)
(0.686181 0.6452 0)
(0.628127 0.711332 0)
(0.593736 0.774413 0)
(0.684011 0.869011 0)
(0.675524 1.02277 0)
(3 9.19737e-15 0)
(3 2.66877e-14 0)
(3 8.33206e-13 0)
(3 6.71992e-12 0)
(3 -3.46186e-11 0)
(3 5.82113e-10 0)
(3 4.59958e-09 0)
(3 1.99674e-09 0)
(3 8.38008e-08 0)
(3 3.30644e-07 0)
(3.00001 -7.9542e-07 0)
(3.00003 5.11153e-05 0)
(3.00073 -0.000530832 0)
(3.00218 0.00423145 0)
(3.07343 0.0434466 0)
(2.85149 0.171955 0)
(1.5544 0.753206 0)
(0.553455 0.494511 0)
(0.673166 0.504859 0)
(0.677594 0.584305 0)
(0.689255 0.662211 0)
(0.719894 0.746363 0)
(0.71914 0.812062 0)
(0.813627 0.900091 0)
(0.880111 0.920677 0)
(3 -1.63738e-15 0)
(3 -1.32166e-14 0)
(3 -2.07275e-13 0)
(3 -1.35764e-12 0)
(3 1.59643e-11 0)
(3 -3.7941e-11 0)
(3 5.85731e-10 0)
(3 -3.57693e-09 0)
(3 8.0226e-09 0)
(3 7.5082e-07 0)
(3.00001 4.16996e-06 0)
(2.99998 5.13375e-05 0)
(3.00068 0.000357136 0)
(2.99947 0.00344093 0)
(3.06053 0.0282403 0)
(2.94434 0.0987987 0)
(2.13934 0.788665 0)
(0.655413 0.583941 0)
(0.709942 0.542991 0)
(0.706233 0.586579 0)
(0.718492 0.651885 0)
(0.756799 0.735993 0)
(0.806176 0.801479 0)
(0.885926 0.889433 0)
(0.977586 0.886109 0)
(3 -3.40362e-16 0)
(3 3.21036e-14 0)
(3 3.57745e-14 0)
(3 2.05467e-12 0)
(3 1.33268e-11 0)
(3 -1.53194e-11 0)
(3 6.1902e-10 0)
(3 1.31459e-09 0)
(3 3.45142e-08 0)
(3 1.81722e-07 0)
(3.00003 2.70516e-06 0)
(2.99988 1.97254e-05 0)
(3.00116 0.000226772 0)
(2.99676 0.00190493 0)
(3.05645 0.0208189 0)
(2.99578 0.0836984 0)
(2.50277 0.655538 0)
(0.891956 0.698903 0)
(0.785285 0.586422 0)
(0.757725 0.608378 0)
(0.760808 0.65544 0)
(0.797385 0.725787 0)
(0.84841 0.798841 0)
(0.955082 0.859701 0)
(1.04152 0.879449 0)
(3 -5.93884e-15 0)
(3 2.0152e-14 0)
(3 2.59485e-13 0)
(3 4.99708e-12 0)
(3 -2.74302e-11 0)
(3 2.33752e-10 0)
(3 -6.16228e-10 0)
(3 1.02992e-08 0)
(3 1.17022e-07 0)
(3 -1.08299e-07 0)
(3 2.95959e-06 0)
(3.00001 1.20679e-05 0)
(3.00017 -8.0998e-05 0)
(3.00064 0.00199958 0)
(3.01664 -0.0418674 0)
(3.03449 0.106271 0)
(2.72546 0.517942 0)
(1.23743 0.818151 0)
(0.814679 0.636884 0)
(0.817288 0.638771 0)
(0.819197 0.669481 0)
(0.843023 0.722457 0)
(0.894998 0.773505 0)
(0.977426 0.833509 0)
(1.08373 0.850403 0)
(3 3.32078e-16 0)
(3 9.6033e-15 0)
(3 -1.45197e-14 0)
(3 5.8755e-13 0)
(3 1.29777e-12 0)
(3 2.94338e-11 0)
(3 1.29032e-10 0)
(3 1.52492e-09 0)
(3 2.92257e-08 0)
(3 1.17779e-07 0)
(2.99999 1.86889e-06 0)
(3.00008 1.22269e-05 0)
(2.9996 0.000135347 0)
(3.00313 0.000999349 0)
(2.99093 0.0100396 0)
(3.08149 0.0696805 0)
(2.9173 0.357279 0)
(1.76445 0.919289 0)
(0.824298 0.694564 0)
(0.853858 0.683554 0)
(0.866536 0.699834 0)
(0.883276 0.733534 0)
(0.928137 0.765604 0)
(1.0023 0.805781 0)
(1.0893 0.839454 0)
(3 2.45409e-16 0)
(3 1.09096e-14 0)
(3 9.98692e-14 0)
(3 1.29295e-12 0)
(3 8.93653e-12 0)
(3 7.02152e-12 0)
(3 4.65076e-10 0)
(3 1.35039e-09 0)
(3 3.28539e-08 0)
(3 1.92948e-07 0)
(3 -7.40467e-08 0)
(3.00003 8.33625e-06 0)
(2.99988 1.8417e-05 0)
(3.00136 0.000522708 0)
(2.9981 0.00294467 0)
(3.0713 0.0389038 0)
(3.01374 0.204509 0)
(2.3583 0.927553 0)
(0.985597 0.773102 0)
(0.918181 0.720463 0)
(0.921175 0.706418 0)
(0.937552 0.726429 0)
(0.972978 0.75191 0)
(1.02901 0.787119 0)
(1.1153 0.804228 0)
(3 -8.32379e-17 0)
(3 1.32061e-14 0)
(3 6.363e-14 0)
(3 -7.23941e-16 0)
(3 2.16609e-12 0)
(3 4.34777e-12 0)
(3 2.76423e-10 0)
(3 1.30289e-09 0)
(3 -1.57829e-09 0)
(3 5.8197e-08 0)
(3 3.08927e-08 0)
(3 6.74866e-07 0)
(3.00001 2.22614e-05 0)
(3.00025 -3.43899e-05 0)
(3.001 0.00270089 0)
(3.02156 -0.0223399 0)
(3.05368 0.151044 0)
(2.72266 0.738219 0)
(1.32895 0.867873 0)
(0.9842 0.760277 0)
(0.976008 0.73293 0)
(0.989361 0.741977 0)
(1.01694 0.757879 0)
(1.06248 0.779464 0)
(1.13079 0.792524 0)
(3 1.1435e-16 0)
(3 2.20054e-15 0)
(3 9.97847e-15 0)
(3 1.11667e-13 0)
(3 6.11325e-13 0)
(3 6.55339e-12 0)
(3 3.86405e-11 0)
(3 4.76254e-10 0)
(3 2.87638e-09 0)
(3 3.32668e-08 0)
(3 2.14682e-07 0)
(2.99999 2.36075e-06 0)
(3.0001 1.87682e-05 0)
(2.99951 0.000178776 0)
(3.00407 0.00148024 0)
(2.98943 0.0136102 0)
(3.1365 0.10177 0)
(2.98171 0.507552 0)
(1.90265 0.937345 0)
(1.02272 0.802899 0)
(1.02474 0.76599 0)
(1.04065 0.768938 0)
(1.06557 0.774589 0)
(1.10167 0.78223 0)
(1.15533 0.785262 0)
(3 1.15788e-15 0)
(3 -5.5314e-16 0)
(3 1.88499e-14 0)
(3 5.50573e-14 0)
(3 2.09645e-12 0)
(3 1.23799e-11 0)
(3 -2.95056e-13 0)
(3 6.13865e-10 0)
(3 -1.4537e-09 0)
(3 3.45127e-08 0)
(3 3.13016e-07 0)
(3 -3.03477e-07 0)
(3.00001 8.46189e-06 0)
(3.00004 6.94933e-06 0)
(3.00042 0.000243649 0)
(3.00332 0.0110928 0)
(3.03769 -0.16023 0)
(3.06613 0.328253 0)
(2.49068 1.00897 0)
(1.21406 0.883789 0)
(1.08005 0.829305 0)
(1.08113 0.789818 0)
(1.10258 0.786882 0)
(1.13718 0.788718 0)
(1.18373 0.785446 0)
(3 1.18358e-16 0)
(3 3.05066e-16 0)
(3 2.4904e-15 0)
(3 2.72283e-14 0)
(3 1.77325e-13 0)
(3 1.86857e-12 0)
(3 1.32708e-11 0)
(3 1.26345e-10 0)
(3 9.32056e-10 0)
(3 8.48507e-09 0)
(3 7.15643e-08 0)
(3 5.57093e-07 0)
(3.00003 5.02382e-06 0)
(2.99998 3.60071e-05 0)
(2.99842 0.000359755 0)
(3.01253 0.00299563 0)
(2.95489 0.0246844 0)
(3.21727 0.195649 0)
(2.93142 0.769069 0)
(1.68393 0.956238 0)
(1.1584 0.860901 0)
(1.13632 0.807535 0)
(1.15011 0.799555 0)
(1.17726 0.794186 0)
(1.21529 0.78911 0)
(3 2.37919e-16 0)
(3 3.50202e-16 0)
(3 9.75264e-15 0)
(3 6.81209e-14 0)
(3 -5.3095e-14 0)
(3 4.2372e-12 0)
(3 -8.98664e-14 0)
(3 1.06742e-10 0)
(3 5.00991e-09 0)
(3 -3.30243e-09 0)
(3 1.03371e-07 0)
(3 6.32895e-08 0)
(3 4.37117e-06 0)
(3.00001 4.25365e-05 0)
(3.00006 -8.89675e-06 0)
(3.00083 0.000667672 0)
(3.0051 0.0144119 0)
(3.05695 -0.232499 0)
(3.08429 0.540513 0)
(2.30908 1.05609 0)
(1.24206 0.899467 0)
(1.18414 0.864394 0)
(1.18922 0.821999 0)
(1.21047 0.810028 0)
(1.24373 0.799373 0)
(3 -9.06416e-19 0)
(3 -6.05885e-17 0)
(3 8.06174e-16 0)
(3 7.35128e-15 0)
(3 5.42886e-14 0)
(3 5.34915e-13 0)
(3 4.01812e-12 0)
(3 3.3044e-11 0)
(3 2.72024e-10 0)
(3 1.77285e-09 0)
(3 1.73363e-08 0)
(3 1.33427e-07 0)
(3 1.11439e-06 0)
(3.00004 9.07264e-06 0)
(2.99998 5.93541e-05 0)
(2.99804 0.000598035 0)
(3.01652 0.00474541 0)
(2.93875 0.0376881 0)
(3.28212 0.309015 0)
(2.9167 0.958186 0)
(1.64534 0.97979 0)
(1.2545 0.903489 0)
(1.23654 0.838948 0)
(1.25158 0.826397 0)
(1.27779 0.812211 0)
(3 5.30832e-17 0)
(3 1.30994e-16 0)
(3 7.42856e-16 0)
(3 1.36442e-16 0)
(3 2.54422e-15 0)
(3 3.38233e-13 0)
(3 2.91028e-12 0)
(3 1.64333e-11 0)
(3 2.67768e-10 0)
(3 3.55497e-09 0)
(3 -5.00167e-10 0)
(3 1.34058e-07 0)
(3 8.54093e-08 0)
(3 6.03682e-06 0)
(3.00002 5.51224e-05 0)
(3.00007 -1.12347e-05 0)
(3.00128 0.000738496 0)
(3.00575 0.0123073 0)
(3.0841 -0.191822 0)
(3.12683 0.669114 0)
(2.30625 1.06124 0)
(1.3346 0.921752 0)
(1.27907 0.885683 0)
(1.29289 0.843175 0)
(1.31251 0.826676 0)
(3 -1.26762e-16 0)
(3 -2.37122e-17 0)
(3 6.4248e-17 0)
(3 9.39674e-16 0)
(3 1.45308e-14 0)
(3 1.12053e-13 0)
(3 1.01688e-12 0)
(3 2.59542e-12 0)
(3 4.73723e-11 0)
(3 2.80162e-10 0)
(3 2.90992e-09 0)
(3 2.61701e-08 0)
(3 1.98949e-07 0)
(2.99999 1.61458e-06 0)
(3.00005 1.28058e-05 0)
(2.99996 7.72677e-05 0)
(2.99784 0.000828408 0)
(3.01645 0.00629686 0)
(2.94289 0.0503009 0)
(3.32118 0.384265 0)
(2.92604 1.03062 0)
(1.69898 0.996031 0)
(1.35506 0.937367 0)
(1.33333 0.867969 0)
(1.34767 0.851315 0)
(3 3.06604e-18 0)
(3 -2.25699e-16 0)
(3 3.80626e-16 0)
(3 3.6782e-16 0)
(3 8.67182e-15 0)
(3 1.93547e-14 0)
(3 4.25693e-13 0)
(3 3.81291e-12 0)
(3 2.26755e-11 0)
(3 3.69452e-10 0)
(3 4.3322e-09 0)
(3 4.53256e-10 0)
(3 1.6286e-07 0)
(3 2.02386e-07 0)
(3 7.93774e-06 0)
(3.00002 5.97136e-05 0)
(3.00009 5.15755e-05 0)
(3.00159 0.000414154 0)
(3.00605 0.0135676 0)
(3.10666 -0.198984 0)
(3.16187 0.748444 0)
(2.34299 1.07979 0)
(1.43754 0.952528 0)
(1.37816 0.915068 0)
(1.38827 0.865642 0)
(3 2.38756e-16 0)
(3 5.18289e-16 0)
(3 7.1811e-16 0)
(3 8.79744e-16 0)
(3 3.49902e-15 0)
(3 1.90956e-14 0)
(3 1.61137e-13 0)
(3 1.12544e-12 0)
(3 8.85585e-12 0)
(3 6.03163e-11 0)
(3 5.69823e-10 0)
(3 3.95522e-09 0)
(3 3.35092e-08 0)
(3 2.48354e-07 0)
(3 2.00341e-06 0)
(3.00005 1.52957e-05 0)
(2.99998 9.85354e-05 0)
(2.99779 0.000965894 0)
(3.01888 0.0070678 0)
(2.93645 0.0562227 0)
(3.35212 0.413679 0)
(2.96826 1.06366 0)
(1.8047 1.02188 0)
(1.44606 0.975075 0)
(1.42135 0.895663 0)
(3 1.43859e-18 0)
(3 1.05866e-16 0)
(3 -2.21429e-17 0)
(3 -3.00403e-16 0)
(3 1.58665e-15 0)
(3 -5.46059e-17 0)
(3 1.08713e-13 0)
(3 3.57167e-13 0)
(3 7.13721e-12 0)
(3 6.16805e-11 0)
(3 9.2893e-11 0)
(3 2.23238e-09 0)
(3 4.09534e-09 0)
(3 1.31968e-07 0)
(3 3.41301e-07 0)
(3 8.35626e-06 0)
(3.00003 4.24004e-05 0)
(3.00007 9.80199e-05 0)
(3.00191 -0.00393642 0)
(3.0035 0.00946551 0)
(3.13097 -0.0941782 0)
(3.24675 0.748516 0)
(2.4733 1.08811 0)
(1.55268 0.96817 0)
(1.48023 0.944579 0)
(3 5.1545e-17 0)
(3 -5.65195e-16 0)
(3 -7.00568e-16 0)
(3 -1.0314e-15 0)
(3 -8.91407e-16 0)
(3 1.67895e-15 0)
(3 2.46036e-14 0)
(3 1.81442e-13 0)
(3 1.48518e-12 0)
(3 9.27305e-12 0)
(3 7.87337e-11 0)
(3 6.17706e-10 0)
(3 4.52192e-09 0)
(3 3.76719e-08 0)
(3 2.78682e-07 0)
(3 2.33185e-07 0)
(3.00001 1.38485e-05 0)
(3.00008 0.000111529 0)
(2.99828 0.000982616 0)
(3.01479 0.00667881 0)
(2.95976 0.0562365 0)
(3.33829 0.39085 0)
(3.04353 1.0436 0)
(1.95958 1.04309 0)
(1.5582 0.9922 0)
(3 5.13189e-17 0)
(3 1.02625e-16 0)
(3 1.02622e-16 0)
(3 2.05266e-16 0)
(3 2.93151e-17 0)
(3 -2.62007e-16 0)
(3 1.23228e-14 0)
(3 6.12504e-14 0)
(3 1.06784e-12 0)
(3 6.50184e-12 0)
(3 6.63538e-12 0)
(3 9.77713e-11 0)
(3 4.74332e-10 0)
(3 9.09956e-09 0)
(3 3.49706e-08 0)
(3 5.49988e-07 0)
(3 3.53982e-06 0)
(3.00005 2.45738e-05 0)
(2.99998 -8.81447e-05 0)
(3.00211 -0.00575773 0)
(3.00269 0.0101888 0)
(3.13125 0.0043257 0)
(3.32399 0.661082 0)
(2.64055 1.07013 0)
(1.71194 0.972981 0)
(3 -1.97522e-33 0)
(3 -1.02638e-16 0)
(3 1.02638e-16 0)
(3 3.59232e-16 0)
(3 3.99921e-16 0)
(3 3.02936e-16 0)
(3 2.5792e-15 0)
(3 2.03773e-14 0)
(3 1.39848e-13 0)
(3 1.50109e-12 0)
(3 4.7394e-12 0)
(3 4.6367e-11 0)
(3 3.73713e-11 0)
(3 3.34666e-09 0)
(3 1.69231e-08 0)
(3 1.36591e-07 0)
(3 1.01341e-06 0)
(2.99999 1.24938e-05 0)
(3.00009 8.22591e-05 0)
(2.99882 0.000804212 0)
(3.0092 0.00554483 0)
(2.9846 0.048263 0)
(3.32009 0.363554 0)
(3.13411 0.969087 0)
(2.19299 1.05176 0)
(3 -1.02638e-16 0)
(3 -2.65725e-16 0)
(3 -2.05275e-16 0)
(3 -3.07914e-16 0)
(3 -3.07914e-16 0)
(3 -1.49531e-16 0)
(3 -3.71032e-16 0)
(3 6.02946e-15 0)
(3 2.65748e-14 0)
(3 3.65795e-13 0)
(3 1.3917e-12 0)
(3 1.03299e-11 0)
(3 7.99705e-11 0)
(3 3.53115e-10 0)
(3 1.60424e-09 0)
(3 -4.96164e-10 0)
(3 3.07285e-07 0)
(3 -2.40396e-06 0)
(3.00002 3.01246e-05 0)
(3.00005 -0.000152594 0)
(3.00123 -0.00128146 0)
(3.00362 0.00895505 0)
(3.10473 0.0778753 0)
(3.47154 0.59834 0)
(2.93298 1.00461 0)
(3 -2.56595e-16 0)
(3 5.13189e-17 0)
(3 -3.59232e-16 0)
(3 -4.76454e-16 0)
(3 -6.61652e-16 0)
(3 -8.6198e-16 0)
(3 -9.74446e-16 0)
(3 1.54874e-15 0)
(3 -8.50984e-15 0)
(3 1.26856e-13 0)
(3 7.19347e-14 0)
(3 5.38215e-12 0)
(3 1.26057e-11 0)
(3 -1.61995e-11 0)
(3 1.6451e-09 0)
(3 1.74188e-08 0)
(3 1.53768e-07 0)
(3 1.15198e-06 0)
(3 8.41007e-06 0)
(3.00006 7.64323e-05 0)
(2.99966 0.000701968 0)
(3.00167 -0.000170187 0)
(3.01057 0.0504411 0)
(3.23034 -0.312909 0)
(3.21205 0.90006 0)
(3 -6.04381e-17 0)
(3 1.53957e-16 0)
(3 2.56595e-16 0)
(3 2.05276e-16 0)
(3 1.55442e-16 0)
(3 2.57173e-16 0)
(3 3.97766e-16 0)
(3 8.50253e-16 0)
(3 1.38668e-15 0)
(3 2.47812e-14 0)
(3 1.52305e-13 0)
(3 1.66678e-12 0)
(3 7.07935e-12 0)
(3 9.21341e-11 0)
(3 5.84894e-10 0)
(3 -6.67404e-10 0)
(3 4.25648e-08 0)
(3 1.87193e-07 0)
(3 1.77444e-06 0)
(3.00004 1.47324e-05 0)
(2.99993 7.00689e-05 0)
(3.00183 0.00103244 0)
(2.99966 0.00762021 0)
(2.91763 0.0697411 0)
(3.47429 0.480282 0)
(3 5.13189e-17 0)
(3 3.84822e-17 0)
(3 2.05276e-16 0)
(3 2.45497e-16 0)
(3 5.12942e-16 0)
(3 3.57913e-16 0)
(3 8.56644e-16 0)
(3 1.13676e-15 0)
(3 3.36637e-15 0)
(3 2.1328e-14 0)
(3 1.36444e-13 0)
(3 1.46777e-13 0)
(3 5.26425e-12 0)
(3 2.18907e-11 0)
(3 -3.26628e-10 0)
(3 3.38255e-09 0)
(3 -6.25073e-08 0)
(3 2.67572e-07 0)
(3 3.72755e-07 0)
(3 8.15128e-06 0)
(3.00006 4.89042e-05 0)
(2.99987 0.000527542 0)
(3.00354 0.00353587 0)
(2.99897 0.00238539 0)
(3.13759 0.0719492 0)
(3 1.53957e-16 0)
(3 1.53957e-16 0)
(3 8.56351e-18 0)
(3 2.05965e-16 0)
(3 2.0221e-16 0)
(3 3.59233e-16 0)
(3 5.64365e-16 0)
(3 6.79705e-16 0)
(3 1.19907e-15 0)
(3 3.20405e-15 0)
(3 4.57846e-14 0)
(3 1.61342e-13 0)
(3 5.38502e-13 0)
(3 1.17291e-11 0)
(3 8.77824e-11 0)
(3 5.74856e-10 0)
(3 4.9274e-09 0)
(3 2.59124e-08 0)
(3 2.28644e-07 0)
(3 -7.06081e-07 0)
(3.00001 1.52559e-05 0)
(3.00007 -1.43659e-05 0)
(3.0003 0.000775471 0)
(3.00493 0.00523611 0)
(2.98708 0.0466962 0)
(3 -1.02638e-16 0)
(3 6.00623e-18 0)
(3 -3.37591e-17 0)
(3 1.44765e-16 0)
(3 1.63148e-16 0)
(3 3.59232e-16 0)
(3 3.63751e-16 0)
(3 3.00102e-16 0)
(3 9.8449e-16 0)
(3 4.23708e-16 0)
(3 -1.24703e-15 0)
(3 6.71376e-14 0)
(3 3.79333e-13 0)
(3 4.36192e-12 0)
(3 2.55506e-11 0)
(3 2.62327e-10 0)
(3 2.24939e-10 0)
(3 1.23558e-08 0)
(3 5.87333e-08 0)
(3 6.28849e-07 0)
(3 1.84294e-06 0)
(2.99999 3.03914e-05 0)
(3.00012 -0.000157472 0)
(3.00086 0.00109418 0)
(3.00062 0.00571211 0)
(3 5.13189e-17 0)
(3 7.21702e-17 0)
(3 3.07757e-17 0)
(3 1.67566e-16 0)
(3 1.24442e-16 0)
(3 2.47187e-16 0)
(3 5.32176e-17 0)
(3 4.93894e-17 0)
(3 1.11214e-16 0)
(3 -4.31341e-16 0)
(3 3.33154e-15 0)
(3 1.81633e-14 0)
(3 9.16895e-14 0)
(3 1.38749e-12 0)
(3 8.48902e-12 0)
(3 8.05781e-11 0)
(3 3.2947e-10 0)
(3 1.34102e-09 0)
(3 8.27453e-09 0)
(3 6.89628e-08 0)
(3 9.6633e-07 0)
(3 5.28697e-06 0)
(2.99992 5.43348e-05 0)
(3.00044 -5.36552e-05 0)
(3.00155 0.00278989 0)
(3 1.17582e-16 0)
(3 3.01594e-16 0)
(3 5.46125e-16 0)
(3 1.53957e-16 0)
(3 5.13189e-17 0)
(3 -4.6187e-16 0)
(3 -6.67146e-16 0)
(3 -7.15643e-16 0)
(3 -8.02305e-16 0)
(3 -9.36936e-16 0)
(3 1.94757e-16 0)
(3 1.15603e-15 0)
(3 4.62263e-14 0)
(3 2.27706e-13 0)
(3 2.23932e-12 0)
(3 1.51334e-11 0)
(3 1.14778e-10 0)
(3 8.52007e-10 0)
(3 6.3282e-09 0)
(3 2.78435e-08 0)
(3 1.09747e-07 0)
(3 1.46533e-06 0)
(3 3.46118e-07 0)
(3.00003 7.07462e-05 0)
(3.00043 0.000571101 0)
(3 -9.80421e-17 0)
(3 -2.09871e-16 0)
(3 -3.07913e-16 0)
(3 -3.59232e-16 0)
(3 -3.07913e-16 0)
(3 -3.19206e-16 0)
(3 -3.02786e-16 0)
(3 -3.00147e-16 0)
(3 -8.60169e-17 0)
(3 3.40293e-16 0)
(3 6.0186e-16 0)
(3 2.49574e-15 0)
(3 2.70124e-14 0)
(3 1.15113e-13 0)
(3 1.05632e-12 0)
(3 9.94475e-12 0)
(3 5.3758e-11 0)
(3 3.57974e-11 0)
(3 4.09605e-10 0)
(3 1.09397e-08 0)
(3 2.10184e-08 0)
(3 5.4899e-07 0)
(2.99999 3.58177e-06 0)
(3.00005 2.72877e-05 0)
(2.9999 0.000197058 0)
(3 -3.4073e-18 0)
(3 -1.00923e-16 0)
(3 5.11347e-17 0)
(3 2.56267e-16 0)
(3 3.5066e-16 0)
(3 4.09547e-16 0)
(3 4.10594e-16 0)
(3 2.56613e-16 0)
(3 2.53179e-16 0)
(3 -2.08144e-16 0)
(3 -2.19391e-16 0)
(3 -2.94122e-16 0)
(3 4.62238e-15 0)
(3 2.26389e-14 0)
(3 3.5241e-13 0)
(3 1.59374e-12 0)
(3 1.6207e-11 0)
(3 4.35224e-11 0)
(3 5.88682e-10 0)
(3 3.12061e-09 0)
(3 7.88059e-09 0)
(3 4.42944e-07 0)
(3 -6.08527e-06 0)
(3 9.789e-06 0)
(3.00007 4.7931e-05 0)
(3 1.53957e-16 0)
(3 2.90643e-16 0)
(3 1.82139e-16 0)
(3 1.02638e-16 0)
(3 1.53957e-16 0)
(3 1.53957e-16 0)
(3 1.53957e-16 0)
(3 3.59232e-16 0)
(3 4.15227e-16 0)
(3 3.30619e-16 0)
(3 2.60251e-16 0)
(3 3.19959e-16 0)
(3 2.50048e-15 0)
(3 7.01372e-15 0)
(3 1.00275e-13 0)
(3 4.0788e-13 0)
(3 5.15418e-12 0)
(3 1.44462e-11 0)
(3 1.6248e-10 0)
(3 6.48127e-10 0)
(3 7.1709e-10 0)
(3 3.693e-08 0)
(3 3.09469e-07 0)
(3 -2.70836e-06 0)
(3.00001 1.37875e-05 0)
(3 -1.02638e-16 0)
(3 -3.59232e-16 0)
(3 -3.77615e-16 0)
(3 -7.69784e-16 0)
(3 -7.69784e-16 0)
(3 -7.99216e-16 0)
(3 -5.35412e-16 0)
(3 -6.38418e-16 0)
(3 -4.90441e-16 0)
(3 -1.73088e-16 0)
(3 -2.38995e-17 0)
(3 -5.56028e-17 0)
(3 4.49271e-16 0)
(3 2.96646e-15 0)
(3 8.59586e-15 0)
(3 2.82654e-13 0)
(3 1.53005e-12 0)
(3 1.05226e-12 0)
(3 4.82096e-11 0)
(3 1.98528e-10 0)
(3 -1.85387e-10 0)
(3 6.86701e-09 0)
(3 -1.01019e-07 0)
(3 3.54198e-07 0)
(3 2.09445e-06 0)
(3 -1.02638e-16 0)
(3 -1.53957e-16 0)
(3 -1.53957e-16 0)
(3 -5.13189e-17 0)
(3 -5.13189e-17 0)
(3 -1.02638e-16 0)
(3 -5.13189e-17 0)
(3 -5.64508e-16 0)
(3 -7.18465e-16 0)
(3 -8.65649e-16 0)
(3 -9.65387e-16 0)
(3 -9.82662e-16 0)
(3 -1.12111e-15 0)
(3 -5.56752e-16 0)
(3 7.2593e-15 0)
(3 4.95243e-14 0)
(3 3.69781e-13 0)
(3 4.23947e-13 0)
(3 1.2497e-11 0)
(3 4.56568e-11 0)
(3 2.59468e-11 0)
(3 2.07507e-09 0)
(3 1.47639e-08 0)
(3 1.92343e-08 0)
(3 8.20273e-07 0)
(3 5.13189e-17 0)
(3 -5.13189e-17 0)
(3 5.13189e-17 0)
(3 9.19145e-18 0)
(3 9.34464e-17 0)
(3 -1.02638e-16 0)
(3 -1.02638e-16 0)
(3 -1.02638e-16 0)
(3 -5.13189e-17 0)
(3 -2.56595e-16 0)
(3 -3.54231e-16 0)
(3 -4.04752e-16 0)
(3 -3.33993e-16 0)
(3 2.29782e-17 0)
(3 1.16206e-15 0)
(3 1.01119e-14 0)
(3 3.75069e-14 0)
(3 1.87051e-13 0)
(3 1.60945e-13 0)
(3 3.98773e-12 0)
(3 1.62131e-10 0)
(3 -2.67738e-09 0)
(3 7.0214e-09 0)
(3 6.03544e-08 0)
(3 1.83081e-07 0)
(3 5.13189e-17 0)
(3 1.55253e-16 0)
(3 5.00227e-17 0)
(3 6.51061e-17 0)
(3 3.75317e-17 0)
(3 -2.56595e-16 0)
(3 -5.13189e-16 0)
(3 -6.67146e-16 0)
(3 -8.72421e-16 0)
(3 -8.72421e-16 0)
(3 -8.52635e-16 0)
(3 -8.91037e-16 0)
(3 -7.76532e-16 0)
(3 -9.0752e-16 0)
(3 -2.77501e-16 0)
(3 1.14194e-15 0)
(3 2.59235e-14 0)
(3 9.09482e-14 0)
(3 1.07216e-12 0)
(3 4.21597e-12 0)
(3 3.60444e-11 0)
(3 1.87522e-10 0)
(3 1.12443e-09 0)
(3 6.35333e-09 0)
(3 3.4013e-08 0)
(3 5.13189e-17 0)
(3 2.05276e-16 0)
(3 3.07913e-16 0)
(3 3.07913e-16 0)
(3 4.10551e-16 0)
(3 4.6187e-16 0)
(3 4.6187e-16 0)
(3 4.64028e-16 0)
(3 4.26833e-16 0)
(3 2.59747e-16 0)
(3 2.80027e-17 0)
(3 -1.55682e-16 0)
(3 -5.54596e-16 0)
(3 -9.11522e-16 0)
(3 -1.29381e-15 0)
(3 -5.00012e-16 0)
(3 8.88242e-15 0)
(3 -2.06876e-15 0)
(3 1.87164e-13 0)
(3 -1.06653e-12 0)
(3 1.14389e-11 0)
(3 6.08153e-11 0)
(3 1.27087e-10 0)
(3 3.61558e-09 0)
(3 1.27226e-08 0)
(3 -5.13189e-17 0)
(3 -1.02638e-16 0)
(3 -3.07913e-16 0)
(3 -3.74676e-16 0)
(3 -4.49955e-16 0)
(3 -5.28839e-16 0)
(3 -2.92263e-16 0)
(3 -1.09732e-16 0)
(3 -5.13189e-17 0)
(3 -1.53957e-16 0)
(3 -2.05276e-16 0)
(3 -3.60655e-16 0)
(3 -5.20261e-16 0)
(3 -7.32446e-16 0)
(3 -1.04756e-15 0)
(3 -2.52459e-15 0)
(3 -2.09635e-14 0)
(3 4.85936e-14 0)
(3 -1.01736e-12 0)
(3 -1.10344e-12 0)
(3 1.46503e-10 0)
(3 -3.50057e-10 0)
(3 2.06879e-09 0)
(3 -3.09902e-09 0)
(3 7.57106e-08 0)
(3 -1.02638e-16 0)
(3 -2.56595e-16 0)
(3 -5.64508e-16 0)
(3 -7.18465e-16 0)
(3 -8.72421e-16 0)
(3 -9.75059e-16 0)
(3 -9.11147e-16 0)
(3 -1.15294e-15 0)
(3 -1.10509e-15 0)
(3 -9.2374e-16 0)
(3 -6.15827e-16 0)
(3 -3.80691e-16 0)
(3 -1.06416e-17 0)
(3 2.92667e-16 0)
(3 5.68082e-16 0)
(3 -1.88915e-15 0)
(3 -9.15382e-15 0)
(3 4.025e-14 0)
(3 -4.00725e-13 0)
(3 1.24487e-12 0)
(3 -2.36898e-11 0)
(3 -1.13634e-10 0)
(3 -1.17611e-09 0)
(3 4.4997e-09 0)
(3 -3.58014e-08 0)
(1.18122 1.07347 0)
(0.542163 0.634134 0)
(-0.592823 0.0284084 0)
(-0.43646 -0.168172 0)
(-0.585618 -0.157727 0)
(-0.466937 -0.0747274 0)
(-0.693994 0.080786 0)
(-0.96694 0.13553 0)
(-1.13014 0.131676 0)
(-1.1996 0.0857745 0)
(-1.21792 0.0525236 0)
(-1.2162 0.0288444 0)
(-1.21585 0.0273677 0)
(-1.25187 0.014997 0)
(-1.3189 -0.00235224 0)
(-1.37173 -0.0180404 0)
(-1.40677 -0.0178061 0)
(-1.42327 -0.0158882 0)
(-1.42845 -0.014999 0)
(-1.42878 -0.0112681 0)
(-1.42943 -0.00952448 0)
(-1.43803 -0.00805229 0)
(-1.44844 -0.00664418 0)
(-1.45776 -0.00402453 0)
(-1.46426 -0.00249275 0)
(-1.4674 0.00170857 0)
(-1.46862 0.00238087 0)
(-1.4669 0.00384664 0)
(-1.46006 0.00188055 0)
(-1.45691 0.00260917 0)
(-1.43175 0.00243919 0)
(-1.40466 0.00591109 0)
(-1.3611 0.00886562 0)
(-1.29866 0.00260379 0)
(-1.23847 -0.00370012 0)
(-1.17789 -0.0143265 0)
(-1.09856 -0.0286207 0)
(-1.0198 -0.0380898 0)
(-0.940217 -0.0444886 0)
(-0.855489 -0.0370086 0)
(-0.763249 -0.0286909 0)
(-0.667559 -0.0242881 0)
(-0.574942 -0.00466275 0)
(-0.479903 -0.00076148 0)
(-0.398139 0.0104262 0)
(-0.332236 0.00542274 0)
(-0.236005 -0.0151176 0)
(-0.145514 -0.0177421 0)
(-0.0664682 -0.0295006 0)
(0.0303445 -0.0309664 0)
(0.103682 -0.0256297 0)
(0.178452 -0.0269861 0)
(0.247352 -0.0265984 0)
(0.313725 -0.02731 0)
(0.37586 -0.0270754 0)
(0.434536 -0.0266374 0)
(0.489355 -0.0255186 0)
(0.539681 -0.0238916 0)
(0.586282 -0.0223354 0)
(0.630056 -0.0207983 0)
(0.671536 -0.0192856 0)
(0.710579 -0.0180202 0)
(0.747442 -0.0169824 0)
(0.78229 -0.0158409 0)
(0.815083 -0.0146303 0)
(0.846361 -0.0134024 0)
(0.875866 -0.0124221 0)
(0.90413 -0.0114886 0)
(0.930776 -0.0106918 0)
(0.956502 -0.00992349 0)
(0.980975 -0.00929768 0)
(1.00487 -0.00864389 0)
(1.02787 -0.00816168 0)
(1.05044 -0.00766306 0)
(1.0722 -0.00723206 0)
(1.09354 -0.00668698 0)
(1.11358 -0.00621914 0)
(1.13306 -0.0057371 0)
(1.15133 -0.00538621 0)
(1.16922 -0.00502808 0)
(1.18615 -0.00475817 0)
(1.20282 -0.00447533 0)
(1.21877 -0.00427613 0)
(1.23452 -0.00403254 0)
(1.24982 -0.00387879 0)
(1.26496 -0.00366146 0)
(1.2799 -0.00355392 0)
(1.29473 -0.00336217 0)
(1.30944 -0.00326596 0)
(1.32408 -0.0030662 0)
(1.33867 -0.00298403 0)
(1.35318 -0.0027783 0)
(1.36768 -0.00275202 0)
(1.38209 -0.00252105 0)
(1.39663 -0.00258045 0)
(1.41111 -0.00226844 0)
(1.4261 -0.00248994 0)
(1.4411 -0.00192977 0)
(1.45704 -0.00199133 0)
(1.47514 -0.000108065 0)
(1.22942 0.993231 0)
(1.17363 0.772333 0)
(0.726638 0.585766 0)
(0.637607 0.286608 0)
(0.108364 0.163309 0)
(-0.13954 0.1311 0)
(-0.360119 0.209403 0)
(-0.732859 0.131362 0)
(-0.843263 0.0261113 0)
(-0.880569 -0.0142661 0)
(-0.823049 -0.0404511 0)
(-0.799127 -0.0348318 0)
(-0.798799 -0.0230109 0)
(-0.865581 -0.0094752 0)
(-0.93145 -0.00181686 0)
(-0.990635 0.0384749 0)
(-1.02459 0.0506528 0)
(-1.03684 0.0376318 0)
(-1.03962 0.0254728 0)
(-1.03813 0.0156997 0)
(-1.03958 0.0141437 0)
(-1.04336 0.0153544 0)
(-1.05216 0.0127434 0)
(-1.06119 0.0070918 0)
(-1.06986 0.000975251 0)
(-1.08055 -0.00222117 0)
(-1.08734 -0.00739183 0)
(-1.08984 -0.00623683 0)
(-1.08041 -0.00703609 0)
(-1.07474 -0.000188142 0)
(-1.04378 -0.00718356 0)
(-1.00984 -0.00865312 0)
(-0.972882 -0.0151444 0)
(-0.900964 -0.0242542 0)
(-0.832133 -0.0309518 0)
(-0.765717 -0.0234562 0)
(-0.673293 -0.0274991 0)
(-0.581056 -0.034342 0)
(-0.495464 -0.025941 0)
(-0.407341 -0.045297 0)
(-0.279122 -0.0694781 0)
(-0.153321 -0.0938596 0)
(-0.0317064 -0.113041 0)
(0.130624 -0.12938 0)
(0.253815 -0.123733 0)
(0.39334 -0.132563 0)
(0.506335 -0.135969 0)
(0.586844 -0.122362 0)
(0.662122 -0.116316 0)
(0.722778 -0.111546 0)
(0.775952 -0.100291 0)
(0.826443 -0.0939824 0)
(0.874118 -0.0877817 0)
(0.915996 -0.0807986 0)
(0.954633 -0.0736413 0)
(0.989404 -0.0676259 0)
(1.02155 -0.0613148 0)
(1.05149 -0.0546745 0)
(1.08051 -0.0495313 0)
(1.10753 -0.0455217 0)
(1.13329 -0.0421059 0)
(1.15751 -0.0385613 0)
(1.18092 -0.0350975 0)
(1.20318 -0.0318892 0)
(1.2241 -0.0291853 0)
(1.24431 -0.0267071 0)
(1.26351 -0.0244944 0)
(1.28188 -0.0224451 0)
(1.29934 -0.0207242 0)
(1.31636 -0.0191018 0)
(1.33291 -0.0178616 0)
(1.34928 -0.0167246 0)
(1.36538 -0.0157629 0)
(1.38131 -0.0147248 0)
(1.39693 -0.0136892 0)
(1.41244 -0.012512 0)
(1.42703 -0.0114206 0)
(1.44137 -0.0104025 0)
(1.45469 -0.00964384 0)
(1.46783 -0.00889242 0)
(1.48013 -0.00833245 0)
(1.4923 -0.00772452 0)
(1.50382 -0.00731934 0)
(1.51528 -0.00683598 0)
(1.52634 -0.00656349 0)
(1.53736 -0.00616485 0)
(1.54819 -0.00595022 0)