/*--------------------------------*- C++ -*----------------------------------*\
| =========                 |                                                 |
| \\      /  F ield         | OpenFOAM: The Open Source CFD Toolbox           |
|  \\    /   O peration     | Version:  v2106                                 |
|   \\  /    A nd           | Website:  www.openfoam.com                      |
|    \\/     M anipulation  |                                                 |
\*---------------------------------------------------------------------------*/
FoamFile
{
    version     2.0;
    format      ascii;
    arch        "LSB;label=32;scalar=64";
    class       volScalarField;
    location    "10";
    object      Mo;
}
// * * * * * * * * * * * * * * * * * * * * * * * * * * * * * * * * * * * * * //

dimensions      [0 0 0 0 0 0 0];

internalField   nonuniform List<scalar> 
5250
(
3.01265
3.01265
3.01265
3.01265
3.01265
3.01265
3.01265
3.01265
3.01263
3.01251
3.01141
3.00178
2.9279
2.65327
1.85444
0.657868
0.201086
0.35411
0.29088
0.246594
0.213511
0.168896
0.127477
0.080553
0.0383318
3.01265
3.01265
3.01265
3.01265
3.01265
3.01265
3.01265
3.01265
3.01263
3.01251
3.01145
3.00215
2.92981
2.66004
1.86797
0.675235
0.195771
0.354726
0.29003
0.248153
0.215784
0.173282
0.135605
0.0956265
0.0702421
3.01265
3.01265
3.01265
3.01265
3.01265
3.01265
3.01265
3.01265
3.01263
3.01252
3.01152
3.00292
2.93404
2.67529
1.90018
0.72361
0.191052
0.359457
0.292001
0.251174
0.222972
0.18592
0.154028
0.125262
0.110953
3.01265
3.01265
3.01265
3.01265
3.01265
3.01265
3.01265
3.01265
3.01264
3.01254
3.01161
3.00399
2.94002
2.69706
1.94757
0.800489
0.19544
0.370881
0.30303
0.262357
0.237891
0.206346
0.18164
0.161282
0.152935
3.01265
3.01265
3.01265
3.01265
3.01265
3.01265
3.01265
3.01265
3.01264
3.01255
3.01171
3.0053
2.94776
2.72614
2.00887
0.902359
0.218212
0.387646
0.323973
0.280749
0.258527
0.231665
0.212842
0.201915
0.198364
3.01265
3.01265
3.01265
3.01265
3.01265
3.01265
3.01265
3.01265
3.01264
3.01257
3.01192
3.00664
2.95645
2.75854
2.08069
1.03317
0.257923
0.409098
0.354578
0.305799
0.285153
0.26372
0.251191
0.246608
0.248046
3.01265
3.01265
3.01265
3.01265
3.01265
3.01265
3.01265
3.01265
3.01264
3.0126
3.01208
3.00815
2.96548
2.79371
2.16383
1.18815
0.32481
0.443045
0.398573
0.344711
0.322253
0.302186
0.296748
0.295158
0.305561
3.01265
3.01265
3.01265
3.01265
3.01265
3.01265
3.01265
3.01265
3.01264
3.01262
3.01209
3.00918
2.97234
2.81981
2.24542
1.26653
0.398512
0.479011
0.446363
0.395765
0.366948
0.348598
0.350745
0.355504
0.377865
3.01265
3.01265
3.01265
3.01265
3.01265
3.01265
3.01265
3.01265
3.01264
3.01263
3.01219
3.01004
2.98009
2.84923
2.33616
1.35476
0.464661
0.506578
0.487271
0.451896
0.423683
0.403593
0.414981
0.420886
0.47461
3.01265
3.01265
3.01265
3.01265
3.01265
3.01265
3.01265
3.01265
3.01264
3.01264
3.01224
3.01083
2.98424
2.88106
2.42892
1.46366
0.535519
0.525417
0.523902
0.508371
0.486286
0.467764
0.486478
0.515928
0.646989
3.01265
3.01265
3.01265
3.01265
3.01265
3.01265
3.01265
3.01265
3.01265
3.01263
3.01241
3.01092
2.99442
2.89786
2.5207
1.57772
0.637259
0.51203
0.54409
0.563007
0.552336
0.542464
0.57
0.651484
0.875575
3.01265
3.01265
3.01265
3.01265
3.01265
3.01265
3.01265
3.01265
3.01265
3.01263
3.01256
3.01122
3.00373
2.92008
2.62742
1.71624
0.796846
0.484998
0.548878
0.582998
0.61469
0.622242
0.651773
0.760555
0.933105
3.01265
3.01265
3.01265
3.01265
3.01265
3.01265
3.01265
3.01265
3.01265
3.01264
3.01256
3.01178
3.00568
2.95028
2.73983
2.05318
1.05508
0.500791
0.563169
0.593574
0.631072
0.685585
0.726461
0.82844
0.958329
3.01265
3.01265
3.01265
3.01265
3.01265
3.01265
3.01265
3.01265
3.01265
3.01264
3.01261
3.01211
3.00868
2.96931
2.80829
2.23479
1.34897
0.586752
0.603158
0.616649
0.647013
0.704603
0.7685
0.865327
0.97505
3.01265
3.01265
3.01265
3.01265
3.01265
3.01265
3.01265
3.01265
3.01265
3.01264
3.01264
3.01214
3.01062
2.97993
2.87192
2.38987
1.53004
0.751566
0.658949
0.658097
0.677674
0.727672
0.792831
0.887895
0.983409
3.01265
3.01265
3.01265
3.01265
3.01265
3.01265
3.01265
3.01265
3.01265
3.01265
3.01263
3.01243
3.01082
2.99564
2.90331
2.54001
1.67936
0.950812
0.700382
0.714228
0.726864
0.758382
0.811185
0.890907
0.981069
3.01265
3.01265
3.01265
3.01265
3.01265
3.01265
3.01265
3.01265
3.01265
3.01265
3.01263
3.01266
3.01135
3.0087
2.93835
2.71354
1.92806
1.22537
0.724566
0.752254
0.766864
0.790468
0.831702
0.897481
0.978424
3.01265
3.01265
3.01265
3.01265
3.01265
3.01265
3.01265
3.01265
3.01265
3.01265
3.01264
3.01262
3.01197
3.00925
2.96902
2.82468
2.29445
1.50905
0.836152
0.79238
0.80328
0.822264
0.856518
0.910535
0.981545
3.01265
3.01265
3.01265
3.01265
3.01265
3.01265
3.01265
3.01265
3.01265
3.01265
3.01265
3.01262
3.01235
3.01022
2.9906
2.87637
2.4904
1.69512
1.03463
0.844269
0.849138
0.86466
0.891511
0.933504
0.990818
3.01265
3.01265
3.01265
3.01265
3.01265
3.01265
3.01265
3.01265
3.01265
3.01265
3.01265
3.01262
3.01264
3.01094
3.0067
2.91619
2.70473
1.91167
1.33956
0.883015
0.895025
0.907572
0.927632
0.958883
1.00464
3.01265
3.01265
3.01265
3.01265
3.01265
3.01265
3.01265
3.01265
3.01265
3.01265
3.01265
3.01264
3.01258
3.01209
3.008
2.97527
2.81141
2.31702
1.62458
1.01266
0.937072
0.940001
0.956613
0.984288
1.02239
3.01265
3.01265
3.01265
3.01265
3.01265
3.01265
3.01265
3.01265
3.01265
3.01265
3.01265
3.01264
3.01258
3.01257
3.00893
3.01059
2.84274
2.62695
1.8769
1.26033
0.992184
0.981084
0.992888
1.01428
1.04547
3.01265
3.01265
3.01265
3.01265
3.01265
3.01265
3.01265
3.01265
3.01265
3.01265
3.01265
3.01265
3.01264
3.01255
3.01174
3.00578
2.95755
2.76801
2.13887
1.57813
1.04932
1.01902
1.0232
1.04191
1.06979
3.01265
3.01265
3.01265
3.01265
3.01265
3.01265
3.01265
3.01265
3.01265
3.01265
3.01265
3.01265
3.01264
3.01257
3.01252
3.00845
3.01332
2.80908
2.5806
1.88529
1.27457
1.07281
1.06187
1.07614
1.09797
3.01265
3.01265
3.01265
3.01265
3.01265
3.01265
3.01265
3.01265
3.01265
3.01265
3.01265
3.01265
3.01265
3.01263
3.01251
3.01142
3.00364
2.93992
2.71721
2.0391
1.62315
1.12388
1.10067
1.10793
1.12563
3.01265
3.01265
3.01265
3.01265
3.01265
3.01265
3.01265
3.01265
3.01265
3.01265
3.01265
3.01265
3.01265
3.01263
3.01255
3.01247
3.00788
3.00861
2.79873
2.519
1.89728
1.32896
1.15737
1.14382
1.1572
3.01265
3.01265
3.01265
3.01265
3.01265
3.01265
3.01265
3.01265
3.01265
3.01265
3.01265
3.01265
3.01265
3.01265
3.01263
3.01249
3.01125
3.00268
2.93354
2.71465
2.06753
1.66592
1.20553
1.18136
1.18515
3.01265
3.01265
3.01265
3.01265
3.01265
3.01265
3.01265
3.01265
3.01265
3.01265
3.01265
3.01265
3.01265
3.01265
3.01263
3.01256
3.01256
3.00766
3.01157
2.80149
2.54505
1.94006
1.40332
1.23169
1.21481
3.01265
3.01265
3.01265
3.01265
3.01265
3.01265
3.01265
3.01265
3.01265
3.01265
3.01265
3.01265
3.01265
3.01265
3.01265
3.01263
3.0125
3.01126
3.00355
2.93501
2.73137
2.13342
1.7496
1.28255
1.25203
3.01265
3.01265
3.01265
3.01265
3.01265
3.01265
3.01265
3.01265
3.01265
3.01265
3.01265
3.01265
3.01265
3.01265
3.01265
3.01264
3.01259
3.01279
3.00873
3.00869
2.82615
2.57918
2.00048
1.49859
1.30743
3.01265
3.01265
3.01265
3.01265
3.01265
3.01265
3.01265
3.01265
3.01265
3.01265
3.01265
3.01265
3.01265
3.01265
3.01265
3.01265
3.01263
3.01256
3.01144
3.00576
2.9453
2.76339
2.22459
1.83979
1.37696
3.01265
3.01265
3.01265
3.01265
3.01265
3.01265
3.01265
3.01265
3.01265
3.01265
3.01265
3.01265
3.01265
3.01265
3.01265
3.01265
3.01265
3.01264
3.01292
3.01003
3.00468
2.86211
2.65134
2.06702
1.61591
3.01265
3.01265
3.01265
3.01265
3.01265
3.01265
3.01265
3.01265
3.01265
3.01265
3.01265
3.01265
3.01265
3.01265
3.01265
3.01265
3.01265
3.01263
3.01253
3.01164
3.00561
2.95517
2.7668
2.36664
1.97105
3.01265
3.01265
3.01265
3.01265
3.01265
3.01265
3.01265
3.01265
3.01265
3.01265
3.01265
3.01265
3.01265
3.01265
3.01265
3.01265
3.01265
3.01265
3.01264
3.0125
3.01108
3.00224
2.91648
2.79849
2.2028
3.01265
3.01265
3.01265
3.01265
3.01265
3.01265
3.01265
3.01265
3.01265
3.01265
3.01265
3.01265
3.01265
3.01265
3.01265
3.01265
3.01265
3.01265
3.01264
3.01257
3.01211
3.00644
3.00701
2.82388
2.68672
3.01265
3.01265
3.01265
3.01265
3.01265
3.01265
3.01265
3.01265
3.01265
3.01265
3.01265
3.01265
3.01265
3.01265
3.01265
3.01265
3.01265
3.01265
3.01265
3.01264
3.01254
3.01138
3.00754
2.94689
2.79248
3.01265
3.01265
3.01265
3.01265
3.01265
3.01265
3.01265
3.01265
3.01265
3.01265
3.01265
3.01265
3.01265
3.01265
3.01265
3.01265
3.01265
3.01265
3.01265
3.01265
3.01261
3.01242
3.01085
3.00646
2.88888
3.01265
3.01265
3.01265
3.01265
3.01265
3.01265
3.01265
3.01265
3.01265
3.01265
3.01265
3.01265
3.01265
3.01265
3.01265
3.01265
3.01265
3.01265
3.01265
3.01265
3.01265
3.01256
3.01211
3.00906
2.98728
3.01265
3.01265
3.01265
3.01265
3.01265
3.01265
3.01265
3.01265
3.01265
3.01265
3.01265
3.01265
3.01265
3.01265
3.01265
3.01265
3.01265
3.01265
3.01265
3.01265
3.01265
3.01265
3.01245
3.01207
3.00556
3.01265
3.01265
3.01265
3.01265
3.01265
3.01265
3.01265
3.01265
3.01265
3.01265
3.01265
3.01265
3.01265
3.01265
3.01265
3.01265
3.01265
3.01265
3.01265
3.01265
3.01265
3.01264
3.01261
3.01237
3.01076
3.01265
3.01265
3.01265
3.01265
3.01265
3.01265
3.01265
3.01265
3.01265
3.01265
3.01265
3.01265
3.01265
3.01265
3.01265
3.01265
3.01265
3.01265
3.01265
3.01265
3.01265
3.01265
3.01264
3.01258
3.01215
3.01265
3.01265
3.01265
3.01265
3.01265
3.01265
3.01265
3.01265
3.01265
3.01265
3.01265
3.01265
3.01265
3.01265
3.01265
3.01265
3.01265
3.01265
3.01265
3.01265
3.01265
3.01265
3.01265
3.01263
3.01258
3.01265
3.01265
3.01265
3.01265
3.01265
3.01265
3.01265
3.01265
3.01265
3.01265
3.01265
3.01265
3.01265
3.01265
3.01265
3.01265
3.01265
3.01265
3.01265
3.01265
3.01265
3.01265
3.01265
3.01264
3.01262
3.01265
3.01265
3.01265
3.01265
3.01265
3.01265
3.01265
3.01265
3.01265
3.01265
3.01265
3.01265
3.01265
3.01265
3.01265
3.01265
3.01265
3.01265
3.01265
3.01265
3.01265
3.01265
3.01265
3.01265
3.01264
3.01265
3.01265
3.01265
3.01265
3.01265
3.01265
3.01265
3.01265
3.01265
3.01265
3.01265
3.01265
3.01265
3.01265
3.01265
3.01265
3.01265
3.01265
3.01265
3.01265
3.01265
3.01265
3.01265
3.01265
3.01265
3.01265
3.01265
3.01265
3.01265
3.01265
3.01265
3.01265
3.01265
3.01265
3.01265
3.01265
3.01265
3.01265
3.01265
3.01265
3.01265
3.01265
3.01265
3.01265
3.01265
3.01265
3.01265
3.01265
3.01265
3.01265
3.01265
3.01265
3.01265
3.01265
3.01265
3.01265
3.01265
3.01265
3.01265
3.01265
3.01265
3.01265
3.01265
3.01265
3.01265
3.01265
3.01265
3.01265
3.01265
3.01265
3.01265
3.01265
3.01265
3.01265
3.01265
3.01265
3.01265
3.01265
3.01265
3.01265
3.01265
3.01265
3.01265
3.01265
3.01265
3.01265
3.01265
3.01265
3.01265
3.01265
3.01265
3.01265
3.01265
3.01265
3.01265
3.01265
3.01265
3.01265
3.01265
3.01265
3.01265
3.01265
3.01265
3.01265
3.01265
3.01265
3.01265
3.01265
3.01265
3.01265
3.01265
3.01265
3.01265
3.01265
3.01265
3.01265
3.01265
3.01265
3.01265
3.01265
3.01265
3.01265
3.01265
3.01265
3.01265
3.01265
3.01265
3.01265
3.01265
3.01265
3.01265
3.01265
3.01265
3.01265
3.01265
3.01265
3.01265
3.01265
3.01265
3.01265
3.01265
3.01265
3.01265
3.01265
3.01265
3.01265
3.01265
3.01265
3.01265
3.01265
1.13497
0.560029
0.357787
0.282703
0.370019
0.282488
0.415973
0.602247
0.735073
0.791746
0.8047
0.799357
0.797036
0.808957
0.853691
0.902992
0.938342
0.954779
0.957942
0.95468
0.952763
0.951689
0.953815
0.956217
0.959103
0.964647
0.969284
0.971886
0.9731
0.971841
0.961399
0.950941
0.921179
0.885784
0.840939
0.796258
0.739822
0.679943
0.621426
0.563482
0.499133
0.4373
0.379524
0.321371
0.269328
0.224732
0.165014
0.107087
0.0548551
0.0183729
0.0578718
0.102717
0.146005
0.186991
0.225605
0.261657
0.295432
0.327293
0.357289
0.385487
0.412103
0.437233
0.461223
0.484155
0.50614
0.52742
0.547835
0.567348
0.585985
0.604052
0.621527
0.638567
0.655069
0.671307
0.686957
0.702256
0.716655
0.730727
0.74396
0.756917
0.769154
0.781184
0.792668
0.804022
0.814975
0.82583
0.836305
0.846704
0.856773
0.866799
0.876719
0.886616
0.89653
0.906464
0.916548
0.926751
0.937373
0.949078
0.958979
0.968827
1.1056
0.945799
0.604944
0.43599
0.12396
0.118812
0.249915
0.446232
0.526696
0.5593
0.523338
0.500278
0.494672
0.526059
0.571301
0.618238
0.646603
0.656681
0.654668
0.651269
0.648575
0.647512
0.649055
0.651775
0.653865
0.661255
0.668459
0.673925
0.675383
0.673767
0.660228
0.647722
0.621813
0.585552
0.543155
0.497317
0.43892
0.376163
0.317103
0.267505
0.185203
0.119595
0.0763047
0.0938865
0.152836
0.238879
0.305203
0.354345
0.400832
0.443394
0.478156
0.511691
0.54412
0.571657
0.597904
0.621493
0.643773
0.664896
0.684856
0.704059
0.72267
0.740635
0.758016
0.774676
0.790848
0.806695
0.821843
0.836589
0.851047
0.865113
0.878856
0.892304
0.905522
0.918578
0.931343
0.943845
0.955786
0.96742
0.978413
0.989177
0.999321
1.00931
1.01891
1.02842
1.0377
1.04687
1.05575
1.06455
1.07302
1.08147
1.08981
1.09814
1.10648
1.11487
1.12339
1.13209
1.14122
1.15156
1.16097
1.17018
1.0662
1.0785
0.96279
0.817183
0.5853
0.415507
0.337931
0.385564
0.334303
0.239061
0.135186
0.0333683
0.0361044
0.108763
0.169559
0.299185
0.349879
0.379619
0.372979
0.364828
0.354261
0.3531
0.355307
0.360765
0.363628
0.373011
0.37819
0.381375
0.381414
0.38163
0.371122
0.361021
0.330333
0.287993
0.237194
0.188655
0.123801
0.085487
0.147024
0.269168
0.380824
0.456517
0.525964
0.591399
0.626591
0.66418
0.693381
0.708919
0.725457
0.743054
0.759491
0.775941
0.793264
0.809903
0.82674
0.842068
0.856886
0.871637
0.886525
0.901026
0.91503
0.928547
0.94187
0.955163
0.968377
0.981345
0.993833
1.00588
1.0177
1.02939
1.0409
1.05223
1.06346
1.07462
1.08567
1.09653
1.10696
1.11712
1.12674
1.13611
1.14498
1.15366
1.16202
1.17034
1.17857
1.18674
1.19476
1.20268
1.21033
1.21791
1.22544
1.23293
1.24044
1.24799
1.25562
1.26342
1.27161
1.28101
1.28994
1.29918
1.07476
1.16673
1.17546
1.12047
0.98321
0.816474
0.641472
0.619796
0.605101
0.559533
0.480596
0.376693
0.279745
0.253592
0.241712
0.256549
0.224144
0.166762
0.126956
0.063229
0.0390727
0.00869633
0.0230458
0.0581451
0.070734
0.0996854
0.125409
0.147161
0.153469
0.147865
0.133004
0.115541
0.0863373
0.073063
0.1355
0.264649
0.406631
0.532422
0.642723
0.72703
0.789052
0.825724
0.85274
0.879444
0.894457
0.912519
0.924151
0.928399
0.934509
0.942158
0.949217
0.957934
0.96756
0.977978
0.987036
0.997007
1.0077
1.01827
1.02869
1.03867
1.04848
1.05888
1.06942
1.08008
1.09091
1.10127
1.1115
1.12159
1.13147
1.14127
1.15099
1.16073
1.17056
1.1805
1.19031
1.19996
1.20923
1.21828
1.22712
1.23571
1.2439
1.25183
1.25963
1.2673
1.27493
1.28247
1.28989
1.29707
1.3041
1.31105
1.31805
1.3251
1.33223
1.33941
1.3467
1.35418
1.36204
1.37107
1.38008
1.38964
1.09226
1.17729
1.24176
1.28241
1.22675
1.1437
1.04023
0.954402
0.946587
0.889443
0.795788
0.691291
0.587816
0.525171
0.476043
0.464728
0.454193
0.429879
0.393351
0.335058
0.288424
0.231647
0.204597
0.163304
0.148639
0.119464
0.117169
0.0970582
0.0726246
0.0829197
0.105763
0.169779
0.263286
0.38549
0.536751
0.686772
0.819257
0.914872
0.975675
1.03158
1.06802
1.08476
1.09061
1.0978
1.10043
1.10408
1.10241
1.09973
1.09482
1.09107
1.08614
1.08625
1.08947
1.09262
1.09636
1.10173
1.10778
1.11381
1.11933
1.12568
1.13332
1.14126
1.14956
1.15792
1.16596
1.1743
1.18299
1.19153
1.20025
1.20892
1.21742
1.22608
1.23497
1.24409
1.25302
1.26198
1.27071
1.27913
1.2873
1.29532
1.30318
1.31087
1.31844
1.32587
1.33321
1.3405
1.34767
1.35463
1.36148
1.36826
1.37507
1.38194
1.38887
1.3959
1.40304
1.41036
1.41809
1.42678
1.43629
1.44626
1.08982
1.18195
1.25013
1.31686
1.32042
1.29599
1.26223
1.2407
1.25555
1.23274
1.16124
1.06762
0.960056
0.872737
0.803921
0.772872
0.741199
0.70033
0.65163
0.592605
0.540888
0.481547
0.440424
0.38996
0.36025
0.316021
0.300016
0.273425
0.259863
0.270389
0.314774
0.405622
0.543941
0.717894
0.883175
1.01191
1.11162
1.19019
1.24202
1.28487
1.30106
1.30105
1.29333
1.2836
1.26598
1.24518
1.22858
1.2157
1.19909
1.18683
1.17438
1.16363
1.16015
1.15482
1.15816
1.16166
1.16366
1.16605
1.16943
1.17381
1.17918
1.18525
1.1918
1.19882
1.2064
1.21422
1.2219
1.22972
1.23693
1.24429
1.25203
1.26025
1.26872
1.27723
1.28594
1.29454
1.3027
1.31068
1.31875
1.32671
1.33456
1.34222
1.3496
1.35685
1.36413
1.37148
1.37868
1.38574
1.3925
1.39914
1.40583
1.4126
1.41948
1.4265
1.43368
1.44108
1.4489
1.45747
1.46756
1.47801
1.07145
1.17446
1.24759
1.30559
1.35567
1.35991
1.36654
1.36891
1.38047
1.40297
1.41332
1.36577
1.30269
1.23122
1.16156
1.09807
1.06691
1.02609
0.974777
0.91149
0.847416
0.777523
0.72467
0.66458
0.623146
0.569589
0.538455
0.495113
0.463162
0.477102
0.543817
0.672736
0.842167
1.00843
1.14471
1.25598
1.34112
1.40163
1.44935
1.48118
1.48782
1.48226
1.46841
1.44419
1.41012
1.36569
1.32367
1.27546
1.25422
1.24182
1.22649
1.21499
1.20398
1.1911
1.19106
1.19279
1.19365
1.19461
1.19673
1.19883
1.20237
1.2071
1.2128
1.21867
1.2252
1.23213
1.23931
1.24646
1.25368
1.26117
1.26875
1.27656
1.28468
1.29292
1.3012
1.30929
1.31743
1.3256
1.33362
1.34154
1.34916
1.35651
1.36381
1.37111
1.37848
1.38581
1.39304
1.40004
1.40672
1.41342
1.42019
1.42708
1.43409
1.44123
1.4485
1.45591
1.46369
1.47221
1.48247
1.49312
1.06236
1.15082
1.23698
1.29508
1.3493
1.37157
1.39835
1.41977
1.44933
1.47651
1.5045
1.52254
1.49297
1.45869
1.41991
1.3814
1.3713
1.35242
1.31613
1.26089
1.19538
1.12095
1.05713
0.987362
0.93265
0.868572
0.81924
0.762053
0.709751
0.723189
0.80337
0.931168
1.0849
1.21162
1.33187
1.42334
1.48954
1.54033
1.58207
1.60131
1.60809
1.60379
1.59202
1.57169
1.54263
1.50359
1.45003
1.38101
1.3233
1.26238
1.25408
1.2436
1.23395
1.22268
1.21421
1.20695
1.20865
1.21062
1.21227
1.21355
1.21573
1.21982
1.22537
1.23114
1.23712
1.24315
1.24948
1.25614
1.26317
1.27063
1.27832
1.28613
1.29383
1.30169
1.3098
1.31795
1.32612
1.33425
1.34199
1.34957
1.35709
1.36446
1.37179
1.37908
1.38632
1.39357
1.40072
1.40778
1.41458
1.42142
1.42829
1.43521
1.44218
1.44922
1.45636
1.46369
1.47144
1.48
1.4904
1.50132
1.06047
1.13489
1.21337
1.28008
1.33267
1.36543
1.3998
1.4258
1.45736
1.49844
1.53396
1.5706
1.58615
1.5723
1.55712
1.54336
1.53626
1.53751
1.53891
1.51335
1.47789
1.4336
1.3839
1.32809
1.27196
1.21003
1.14653
1.0746
0.986033
0.980411
1.03048
1.12494
1.23689
1.33559
1.43287
1.50977
1.57522
1.62583
1.65183
1.66786
1.67235
1.6724
1.6663
1.65447
1.63887
1.61104
1.56982
1.51771
1.44919
1.36659
1.29327
1.24601
1.24898
1.2469
1.24116
1.23268
1.22699
1.22644
1.227
1.22907
1.232
1.2355
1.23911
1.24322
1.24824
1.25405
1.26052
1.26736
1.27449
1.28176
1.28899
1.29626
1.30378
1.31144
1.3193
1.32723
1.3352
1.34303
1.35078
1.35844
1.36604
1.37342
1.38054
1.38741
1.39422
1.40109
1.40799
1.41487
1.42177
1.4287
1.43569
1.44272
1.44978
1.45686
1.46402
1.47133
1.47904
1.48754
1.49786
1.50873
1.06322
1.12725
1.19463
1.25997
1.30826
1.351
1.38768
1.41865
1.45281
1.49383
1.53774
1.57581
1.61328
1.6236
1.62275
1.6215
1.62133
1.62609
1.63738
1.64959
1.63155
1.6075
1.57888
1.54688
1.51195
1.47191
1.41646
1.3403
1.23722
1.15333
1.18018
1.23945
1.31026
1.39338
1.46866
1.53547
1.60518
1.63671
1.66442
1.68798
1.70193
1.7039
1.70234
1.69998
1.69531
1.67949
1.65954
1.62875
1.5795
1.51358
1.41803
1.34399
1.25998
1.25977
1.2597
1.25768
1.25385
1.24885
1.2447
1.24633
1.24896
1.25135
1.25306
1.25569
1.2597
1.26519
1.27174
1.27864
1.28581
1.29309
1.30034
1.30769
1.31518
1.3223
1.32942
1.33672
1.34432
1.35193
1.35943
1.36701
1.3745
1.38172
1.38868
1.39546
1.4023
1.40925
1.41625
1.42329
1.43043
1.43766
1.44493
1.45201
1.45898
1.46597
1.47307
1.48035
1.48805
1.49654
1.50684
1.51767
1.07176
1.12737
1.18621
1.24546
1.291
1.33604
1.36902
1.40476
1.44078
1.48042
1.52573
1.56821
1.60635
1.63872
1.644
1.65423
1.65925
1.66914
1.67992
1.69619
1.70365
1.70097
1.68669
1.66915
1.64511
1.61236
1.5529
1.46399
1.34043
1.21958
1.2452
1.28865
1.34898
1.41531
1.47926
1.53573
1.57029
1.60293
1.63313
1.6572
1.67528
1.69333
1.71219
1.71943
1.71806
1.71421
1.71215
1.69919
1.67606
1.63836
1.58159
1.50107
1.39852
1.30942
1.25919
1.26933
1.27437
1.27432
1.27155
1.26865
1.26817
1.26964
1.27179
1.27445
1.27787
1.28221
1.28769
1.29452
1.30191
1.30907
1.31588
1.32246
1.32901
1.33577
1.34287
1.35012
1.35734
1.3645
1.37162
1.3787
1.38562
1.39234
1.39893
1.40551
1.41217
1.41896
1.42586
1.43292
1.44014
1.4474
1.45468
1.46187
1.469
1.47619
1.48349
1.49097
1.49881
1.50741
1.51773
1.52872
1.0862
1.13378
1.18562
1.23615
1.28515
1.32162
1.35648
1.39135
1.42532
1.46291
1.50443
1.55025
1.58893
1.62741
1.65054
1.66221
1.67046
1.68248
1.69863
1.71379
1.72787
1.73903
1.74376
1.73138
1.71178
1.6717
1.59042
1.43538
1.32219
1.22067
1.24824
1.28773
1.3414
1.39259
1.44421
1.48875
1.53051
1.5673
1.596
1.61909
1.64159
1.66697
1.68768
1.70545
1.72692
1.73288
1.73327
1.73392
1.73288
1.72072
1.69198
1.64487
1.57619
1.4665
1.38208
1.28115
1.28501
1.29353
1.30123
1.30113
1.29819
1.29513
1.29527
1.29636
1.29878
1.30231
1.30684
1.31245
1.31906
1.32604
1.33306
1.33978
1.34636
1.3529
1.35963
1.36684
1.37393
1.38104
1.3878
1.39433
1.40088
1.40724
1.41354
1.4198
1.42614
1.43259
1.43918
1.44595
1.45297
1.46019
1.4673
1.47438
1.48134
1.48832
1.49536
1.50256
1.51014
1.51852
1.52868
1.53968
1.10525
1.14692
1.1918
1.23743
1.28364
1.31693
1.35105
1.38134
1.41172
1.4459
1.48346
1.52611
1.56881
1.60326
1.63859
1.65591
1.6684
1.68342
1.70059
1.71764
1.73698
1.75418
1.76887
1.75706
1.73038
1.66464
1.54983
1.37821
1.20604
1.21916
1.24028
1.27437
1.31394
1.35718
1.40293
1.44581
1.48359
1.51753
1.54638
1.57532
1.6023
1.63013
1.64979
1.67127
1.69271
1.71369
1.73478
1.75864
1.75928
1.76024
1.75377
1.73992
1.70565
1.64866
1.56473
1.45103
1.35283
1.29838
1.31274
1.32657
1.32658
1.32336
1.31967
1.32162
1.32412
1.32722
1.33077
1.33522
1.34067
1.34724
1.35401
1.36097
1.36704
1.37259
1.37884
1.38571
1.39297
1.40025
1.40741
1.41339
1.41944
1.42546
1.43141
1.43736
1.44333
1.44938
1.4556
1.46208
1.46896
1.47606
1.48307
1.4901
1.4969
1.50378
1.51077
1.51794
1.52551
1.53387
1.54405
1.55498
1.12716
1.16303
1.20329
1.24303
1.2841
1.31737
1.35044
1.37648
1.40457
1.43525
1.46709
1.50256
1.54452
1.58324
1.61746
1.64216
1.65651
1.67351
1.69274
1.71103
1.73168
1.74778
1.76344
1.74528
1.69872
1.60092
1.4264
1.27706
1.18415
1.19857
1.21995
1.25085
1.28527
1.32301
1.36173
1.4
1.43716
1.47244
1.50559
1.5365
1.56545
1.59153
1.61516
1.63982
1.66888
1.69569
1.7244
1.74099
1.75995
1.78139
1.7856
1.78864
1.77971
1.76082
1.71654
1.64865
1.54003
1.44464
1.33569
1.33786
1.34876
1.36006
1.36033
1.35856
1.35707
1.35806
1.36049
1.36465
1.37058
1.37659
1.38194
1.38684
1.39172
1.39769
1.40397
1.41021
1.41651
1.42265
1.42864
1.4348
1.44093
1.44647
1.4519
1.45737
1.46295
1.4687
1.47472
1.48104
1.4878
1.4947
1.50166
1.50861
1.51529
1.52206
1.52893
1.536
1.54347
1.55179
1.56217
1.57302
1.15068
1.1816
1.21827
1.25426
1.29108
1.32236
1.35019
1.37678
1.40316
1.42966
1.45811
1.48938
1.52316
1.56302
1.59471
1.62167
1.64829
1.66446
1.68188
1.70471
1.72458
1.74374
1.73442
1.70365
1.62426
1.46208
1.32249
1.17462
1.17976
1.18968
1.20671
1.23032
1.25898
1.29109
1.32572
1.36237
1.39921
1.43511
1.46882
1.5014
1.53138
1.56015
1.58697
1.61697
1.64551
1.67673
1.69334
1.71384
1.73917
1.76548
1.7864
1.81044
1.81396
1.82041
1.80552
1.77888
1.72687
1.64906
1.53196
1.44645
1.35357
1.36965
1.38462
1.39596
1.39329
1.38953
1.39074
1.39339
1.39807
1.40403
1.41061
1.4148
1.4191
1.42346
1.42894
1.43444
1.44035
1.4457
1.4512
1.45702
1.46287
1.46872
1.47432
1.47982
1.48534
1.49098
1.49687
1.50309
1.50979
1.51674
1.52381
1.53096
1.53784
1.54472
1.55157
1.55854
1.5659
1.57408
1.58447
1.5952
1.17668
1.20248
1.23526
1.26881
1.30174
1.33116
1.35478
1.37966
1.40359
1.42765
1.453
1.48037
1.51133
1.54439
1.57955
1.60817
1.63537
1.6528
1.67263
1.69644
1.71692
1.71894
1.69447
1.62852
1.50726
1.33885
1.19338
1.16875
1.17479
1.18442
1.19866
1.2176
1.2412
1.26916
1.30043
1.33425
1.36867
1.40348
1.43778
1.4715
1.50306
1.5335
1.56499
1.5968
1.62129
1.64488
1.66977
1.69716
1.72555
1.75258
1.77993
1.8056
1.82607
1.84735
1.84679
1.84906
1.83273
1.7967
1.73629
1.64678
1.5303
1.41951
1.40151
1.41169
1.42947
1.43349
1.4319
1.42979
1.43163
1.43481
1.43873
1.44318
1.44779
1.45182
1.45637
1.46128
1.46652
1.4721
1.47776
1.48278
1.48794
1.49327
1.49869
1.50412
1.50957
1.51517
1.52098
1.5271
1.53366
1.5407
1.54773
1.55502
1.56208
1.56899
1.5758
1.5826
1.58984
1.59796
1.60851
1.61927
1.20179
1.22339
1.25227
1.28477
1.31447
1.34493
1.36292
1.38405
1.40748
1.42856
1.45071
1.47504
1.50356
1.53582
1.56925
1.60126
1.62309
1.6476
1.66918
1.69456
1.69328
1.67721
1.62395
1.51696
1.35233
1.20487
1.16394
1.16999
1.17627
1.18485
1.19651
1.21195
1.23195
1.25608
1.28377
1.31411
1.34643
1.38016
1.41397
1.44787
1.48114
1.51455
1.54882
1.57401
1.60001
1.6281
1.65681
1.68599
1.715
1.74278
1.7693
1.79519
1.82308
1.84978
1.86674
1.88515
1.88514
1.87882
1.86095
1.8149
1.74411
1.62259
1.53145
1.43017
1.44057
1.4546
1.46434
1.4744
1.47394
1.47425
1.47507
1.47637
1.48105
1.48614
1.491
1.49442
1.49806
1.50229
1.50723
1.51244
1.51779
1.52253
1.52718
1.53192
1.53682
1.5419
1.54726
1.55304
1.55939
1.56635
1.57344
1.5808
1.58788
1.59468
1.60148
1.60816
1.61531
1.62346
1.63422
1.64512
1.22876
1.24675
1.2706
1.30079
1.32834
1.35972
1.37498
1.39325
1.41429
1.43477
1.45263
1.47348
1.49861
1.52951
1.56174
1.59572
1.61702
1.64382
1.66402
1.68048
1.66425
1.617
1.52023
1.35895
1.20602
1.15338
1.16392
1.17172
1.18012
1.18912
1.19967
1.21305
1.23003
1.25115
1.27578
1.30365
1.3335
1.36523
1.39786
1.43163
1.46635
1.50101
1.5288
1.55843
1.58829
1.61789
1.64809
1.67839
1.70752
1.73513
1.76268
1.7895
1.81585
1.84088
1.86639
1.8903
1.90613
1.91939
1.92275
1.91879
1.88467
1.83158
1.74876
1.62668
1.52007
1.46968
1.48236
1.49947
1.51748
1.51711
1.51491
1.51282
1.51258
1.5134
1.51867
1.52348
1.52872
1.53253
1.53653
1.5408
1.54614
1.5511
1.55618
1.56067
1.56528
1.57003
1.57511
1.58079
1.58715
1.5942
1.60127
1.60849
1.61522
1.62189
1.62856
1.63526
1.64215
1.65015
1.6609
1.67179
1.24738
1.26489
1.28679
1.31511
1.3429
1.37535
1.39185
1.40604
1.42433
1.44543
1.46059
1.47772
1.4994
1.52762
1.55615
1.58591
1.61815
1.64151
1.66148
1.64947
1.61168
1.52537
1.36588
1.22132
1.13678
1.15378
1.16566
1.17839
1.18716
1.19668
1.20736
1.22011
1.23555
1.25421
1.2761
1.30085
1.32843
1.35806
1.38961
1.42348
1.45747
1.48685
1.51796
1.55004
1.58151
1.61394
1.64262
1.67225
1.70211
1.7312
1.75975
1.78726
1.814
1.83865
1.86164
1.88432
1.90717
1.9333
1.95832
1.96204
1.95882
1.95246
1.90782
1.84077
1.72433
1.62442
1.5044
1.51049
1.52165
1.53488
1.55179
1.54825
1.546
1.54581
1.54793
1.55116
1.55584
1.56038
1.56476
1.56922
1.57409
1.57916
1.58438
1.5886
1.59287
1.59735
1.60215
1.60758
1.61383
1.62109
1.62833
1.63599
1.64264
1.64924
1.656
1.66303
1.66988
1.67765
1.6883
1.69917
1.27798
1.28956
1.30701
1.32982
1.3576
1.38235
1.412
1.42185
1.43804
1.45867
1.47396
1.48898
1.50699
1.53062
1.55591
1.58834
1.61733
1.64252
1.63324
1.60128
1.525
1.36962
1.24962
1.12583
1.14177
1.15751
1.17265
1.18617
1.19695
1.20799
1.2197
1.23251
1.24719
1.26397
1.28371
1.306
1.3313
1.35856
1.38847
1.41945
1.44997
1.48231
1.51573
1.55049
1.57958
1.60972
1.64014
1.66872
1.69735
1.72704
1.75587
1.7825
1.80875
1.83255
1.85648
1.87975
1.90376
1.93244
1.95787
1.98707
1.99714
1.99919
1.99462
1.97551
1.91758
1.83597
1.71336
1.62527
1.53331
1.54366
1.56391
1.57574
1.5874
1.58472
1.58434
1.58512
1.58681
1.58953
1.59526
1.6006
1.60609
1.61044
1.61465
1.61899
1.62266
1.62668
1.63117
1.63639
1.64254
1.64977
1.65728
1.66511
1.6718
1.67825
1.68472
1.69134
1.69806
1.7054
1.7156
1.72605
1.31859
1.30655
1.32354
1.34433
1.37084
1.39508
1.42564
1.43982
1.45592
1.47648
1.49181
1.504
1.51893
1.53808
1.56204
1.59128
1.61996
1.6206
1.59105
1.52048
1.38233
1.24879
1.12217
1.13123
1.14529
1.16186
1.17899
1.19464
1.20897
1.22216
1.23514
1.24865
1.2632
1.27928
1.29738
1.31788
1.34068
1.36623
1.39361
1.42315
1.45457
1.48668
1.51899
1.55067
1.58153
1.61195
1.64216
1.67188
1.70075
1.72947
1.75793
1.78452
1.81035
1.83466
1.85856
1.88164
1.9048
1.93162
1.95756
1.98579
2.00826
2.03136
2.03325
2.03128
2.01751
1.97879
1.91762
1.82696
1.70539
1.59018
1.57054
1.57828
1.59518
1.61112
1.61815
1.61613
1.61568
1.6155
1.61668
1.62385
1.62939
1.63518
1.63929
1.64359
1.64736
1.65118
1.65597
1.66157
1.66805
1.67508
1.68314
1.69104
1.6989
1.70548
1.71223
1.71841
1.72491
1.73214
1.74217
1.75268
1.37784
1.34242
1.34432
1.35948
1.38047
1.40709
1.43217
1.45931
1.47342
1.49159
1.51429
1.52285
1.53364
1.54974
1.572
1.59866
1.6046
1.57948
1.51759
1.39586
1.25483
1.12196
1.12707
1.13639
1.15033
1.16829
1.18661
1.2047
1.22206
1.23894
1.25483
1.27016
1.28588
1.30244
1.32021
1.33974
1.3612
1.38469
1.41001
1.43704
1.46536
1.4948
1.52519
1.55582
1.58614
1.6157
1.64521
1.67417
1.70272
1.73077
1.75789
1.7843
1.80921
1.83339
1.85706
1.87931
1.90246
1.927
1.95226
1.97304
1.99615
2.02081
2.04152
2.06458
2.06268
2.0545
2.02654
1.98137
1.91219
1.79272
1.70355
1.60154
1.61007
1.62256
1.63259
1.64473
1.64363
1.64317
1.64264
1.64633
1.6529
1.65875
1.66508
1.66956
1.6735
1.67821
1.68162
1.68588
1.69129
1.69819
1.70668
1.71504
1.72358
1.73025
1.73691
1.74362
1.75052
1.75809
1.76828
1.77915
1.51168
1.41613
1.38418
1.38941
1.40389
1.42525
1.44686
1.47615
1.49139
1.50878
1.52898
1.54616
1.55233
1.5656
1.57958
1.59622
1.57257
1.51537
1.40795
1.26128
1.12273
1.12714
1.1355
1.14819
1.16522
1.18378
1.20315
1.22302
1.24291
1.26182
1.28002
1.2963
1.31226
1.32857
1.34548
1.36342
1.38265
1.4035
1.42599
1.4501
1.47576
1.50266
1.53065
1.55954
1.58854
1.61773
1.64662
1.67513
1.7032
1.73069
1.75651
1.78253
1.8063
1.8304
1.8537
1.87724
1.90196
1.92624
1.94841
1.96999
1.99223
2.01512
2.04111
2.06124
2.08578
2.08313
2.07972
2.06947
2.04268
1.98774
1.90713
1.78767
1.69521
1.62727
1.62984
1.64739
1.65946
1.67343
1.67501
1.67637
1.67819
1.68297
1.68956
1.69545
1.69938
1.70307
1.70621
1.71057
1.71629
1.72356
1.73241
1.74099
1.74999
1.75639
1.76292
1.76959
1.77657
1.78435
1.79465
1.80602
1.83704
1.44775
1.42804
1.41156
1.42477
1.44174
1.46151
1.48308
1.5077
1.52015
1.53676
1.55855
1.56553
1.57638
1.58472
1.56511
1.51366
1.4126
1.2678
1.12557
1.12763
1.13535
1.14881
1.16476
1.1827
1.20147
1.22108
1.24156
1.26244
1.28294
1.30256
1.32079
1.33815
1.35454
1.37121
1.38847
1.40654
1.42576
1.44625
1.46816
1.49141
1.51587
1.54148
1.56799
1.59525
1.6229
1.65084
1.67869
1.70632
1.73287
1.7589
1.78297
1.80669
1.83019
1.85267
1.87615
1.90006
1.92326