/*--------------------------------*- C++ -*----------------------------------*\
| =========                 |                                                 |
| \\      /  F ield         | OpenFOAM: The Open Source CFD Toolbox           |
|  \\    /   O peration     | Version:  v2106                                 |
|   \\  /    A nd           | Website:  www.openfoam.com                      |
|    \\/     M anipulation  |                                                 |
\*---------------------------------------------------------------------------*/
FoamFile
{
    version     2.0;
    format      ascii;
    arch        "LSB;label=32;scalar=64";
    class       volScalarField;
    location    "10";
    object      p;
}
// * * * * * * * * * * * * * * * * * * * * * * * * * * * * * * * * * * * * * //

dimensions      [1 -1 -2 0 0 0 0];

internalField   nonuniform List<scalar> 
5250
(
1
1
1
1
1
1
1
1
1.00001
1.00008
1.00068
1.00607
1.05332
1.42547
3.09229
8.94993
13.0665
10.8907
11.485
11.6976
11.793
11.9483
12.0544
12.1383
12.1847
1
1
1
1
1
1
1
1
1.00001
1.00007
1.00066
1.00589
1.05157
1.41532
3.05348
8.82561
13.1067
10.8656
11.4774
11.6803
11.7801
11.935
12.0403
12.1244
12.1708
1
1
1
1
1
1
1
1
1.00001
1.00007
1.00061
1.00553
1.04781
1.39293
2.96631
8.53159
13.1726
10.7948
11.435
11.6411
11.7329
11.8809
11.984
12.0613
12.102
1
1
1
1
1
1
1
1
1.00001
1.00007
1.00055
1.00508
1.04269
1.36141
2.84147
8.10469
13.2782
10.7262
11.3798
11.5877
11.6694
11.8068
11.9015
11.97
12.0088
1
1
1
1
1
1
1
1
1.00001
1.00006
1.00047
1.00456
1.03644
1.32085
2.67403
7.58443
13.2746
10.6561
11.2809
11.4915
11.5657
11.69
11.78
11.8455
11.8808
1
1
1
1
1
1
1
1
1
1.00004
1.00038
1.00355
1.02964
1.2764
2.4867
6.99834
13.2002
10.6198
11.1857
11.3961
11.4727
11.5754
11.6449
11.6707
11.6967
1
1
1
1
1
1
1
1
1
1.00003
1.00027
1.00272
1.0232
1.22974
2.28087
6.34033
12.9547
10.6327
11.0442
11.2683
11.3199
11.3725
11.4398
11.4576
11.4523
1
1
1
1
1
1
1
1
1
1.00003
1.0002
1.0025
1.01898
1.19332
2.12075
5.70975
12.361
10.6229
10.8888
11.076
11.1719
11.1886
11.1667
11.1844
11.0812
1
1
1
1
1
1
1
1
1
1.00003
1.00015
1.00201
1.01462
1.15429
1.94011
5.05619
11.5608
10.6165
10.7094
10.8756
10.9392
10.8872
10.7935
10.7259
10.5051
1
1
1
1
1
1
1
1
1
1.00003
1.0001
1.00173
1.0111
1.13036
1.7771
4.44423
10.606
10.6109
10.5878
10.5645
10.6544
10.6101
10.328
10.3803
9.45362
1
1
1
1
1
1
1
1
1
1.00001
1.0001
1.00111
1.00907
1.08867
1.60898
3.82563
9.51764
10.6256
10.3962
10.2845
10.269
10.2055
9.70883
9.34453
6.88439
1
1
1
1
1
1
1
1
1
1.00001
1.00009
1.00055
1.00652
1.04887
1.45505
3.25522
8.36137
10.7116
10.0367
9.98607
9.90316
9.77212
9.09779
8.47114
6.52649
1
1
1
1
1
1
1
1
1
1.00001
1.00005
1.00046
1.00424
1.03447
1.3079
2.60576
7.04569
10.7358
9.73928
9.72188
9.61752
9.40013
8.7757
7.99436
6.6579
1
1
1
1
1
1
1
1
1
1
1.00003
1.00024
1.00257
1.02089
1.20972
2.19539
5.81483
10.4368
9.63493
9.49312
9.36745
9.09421
8.51012
7.77856
6.65551
1
1
1
1
1
1
1
1
1
1
1.00003
1.00012
1.00211
1.01279
1.14976
1.84957
4.73135
9.40231
9.62798
9.37404
9.1199
8.79178
8.26361
7.62054
6.65231
1
1
1
1
1
1
1
1
1
1
1.00001
1.00012
1.00109
1.00903
1.08307
1.56535
3.70711
8.03193
9.55375
9.13935
8.83085
8.51003
8.05849
7.50196
6.66157
1
1
1
1
1
1
1
1
1
1
0.999999
1.00008
1.0002
1.00511
1.02766
1.3366
2.7869
6.61428
9.43073
8.90611
8.61722
8.32872
7.90515
7.3868
6.64767
1
1
1
1
1
1
1
1
1
1
1
1.00004
1.00021
1.00295
1.01986
1.2064
2.13472
5.21523
8.91747
8.85789
8.53874
8.21974
7.80114
7.29166
6.63818
1
1
1
1
1
1
1
1
1
1
1
1.00002
1.00016
1.00147
1.01201
1.10796
1.70858
4.05509
7.83987
8.85234
8.462
8.06263
7.65201
7.18722
6.60854
1
1
1
1
1
1
1
1
1
1
1
0.999999
1.00011
1.00033
1.00688
1.03922
1.44201
2.98828
6.3597
8.63452
8.23586
7.89047
7.52752
7.11297
6.59817
1
1
1
1
1
1
1
1
1
1
1
1
1.00004
1.00032
1.00277
1.02301
1.18581
2.0924
4.82022
7.9533
8.13145
7.82589
7.46855
7.07205
6.59926
1
1
1
1
1
1
1
1
1
1
1
1
1.00004
1.00025
1.00004
1.01433
1.04781
1.71586
3.59803
6.74203
8.0949
7.77652
7.43475
7.05341
6.60875
1
1
1
1
1
1
1
1
1
1
1
1
1.00001
1.00007
1.0005
1.00441
1.03403
1.27129
2.46666
5.27516
7.70322
7.64076
7.38085
7.02929
6.60934
1
1
1
1
1
1
1
1
1
1
1
1
1
1.00006
1.00031
1.00018
1.01607
1.02866
1.82277
3.95308
6.79933
7.70851
7.40298
7.04708
6.63787
1
1
1
1
1
1
1
1
1
1
1
1
1
1.00001
1.00009
1.00069
1.006
1.04485
1.35993
2.76927
5.4554
7.49292
7.3251
7.02336
6.64904
1
1
1
1
1
1
1
1
1
1
1
1
1
1
1.00008
1.0004
1.00031
1.01753
1.05898
1.92794
4.06869
6.64121
7.34945
7.04149
6.6791
1
1
1
1
1
1
1
1
1
1
1
1
1
1
1.00001
1.00011
1.00079
1.00682
1.04981
1.39296
2.81931
5.3021
7.10045
6.94531
6.65763
1
1
1
1
1
1
1
1
1
1
1
1
1
1
1
1.00007
1.00036
0.999982
1.01884
1.05366
1.89328
3.92055
6.27477
6.96321
6.66995
1
1
1
1
1
1
1
1
1
1
1
1
1
1
1
1.00001
1.00011
1.00077
1.00677
1.0459
1.38151
2.71355
5.00137
6.70336
6.63296
1
1
1
1
1
1
1
1
1
1
1
1
1
1
1
1
1.00004
1.00019
0.999409
1.01575
1.05892
1.81432
3.66352
5.84621
6.66171
1
1
1
1
1
1
1
1
1
1
1
1
1
1
1
1
1
1.00009
1.00055
1.00567
1.03807
1.32964
2.49854
4.59453
6.30084
1
1
1
1
1
1
1
1
1
1
1
1
1
1
1
1
1
0.999999
1.00003
0.999176
1.01109
1.06293
1.70195
3.26463
5.38368
1
1
1
1
1
1
1
1
1
1
1
1
1
1
1
1
1
1.00001
1.00007
1.00057
1.00493
1.03531
1.28326
2.43189
4.22828
1
1
1
1
1
1
1
1
1
1
1
1
1
1
1
1
1
1
1.00001
1.00008
1.00072
1.00761
1.05266
1.47952
2.76256
1
1
1
1
1
1
1
1
1
1
1
1
1
1
1
1
1
1
1.00001
1.00005
1.00038
1.00255
1.0213
0.997702
1.73245
1
1
1
1
1
1
1
1
1
1
1
1
1
1
1
1
1
1
1
1.00001
1.00006
1.0005
1.00598
1.0332
1.30912
1
1
1
1
1
1
1
1
1
1
1
1
1
1
1
1
1
1
1
1
1.00002
1.00019
1.00115
1.00887
1.04058
1
1
1
1
1
1
1
1
1
1
1
1
1
1
1
1
1
1
1
1
1.00001
1.00001
1.00035
1.0028
1.01786
1
1
1
1
1
1
1
1
1
1
1
1
1
1
1
1
1
1
1
1
1
1.00002
1
1.00073
1.00475
1
1
1
1
1
1
1
1
1
1
1
1
1
1
1
1
1
1
1
1
1
1
1.00002
1.0002
1.00144
1
1
1
1
1
1
1
1
1
1
1
1
1
1
1
1
1
1
1
1
1
1
1
1.00004
1.00037
1
1
1
1
1
1
1
1
1
1
1
1
1
1
1
1
1
1
1
1
1
1
1
1.00001
1.0001
1
1
1
1
1
1
1
1
1
1
1
1
1
1
1
1
1
1
1
1
1
1
1
1
1.00003
1
1
1
1
1
1
1
1
1
1
1
1
1
1
1
1
1
1
1
1
1
1
1
1
1
1
1
1
1
1
1
1
1
1
1
1
1
1
1
1
1
1
1
1
1
1
1
1
1
1
1
1
1
1
1
1
1
1
1
1
1
1
1
1
1
1
1
1
1
1
1
1
1
1
1
1
1
1
1
1
1
1
1
1
1
1
1
1
1
1
1
1
1
1
1
1
1
1
1
1
1
1
1
1
1
1
1
1
1
1
1
1
1
1
1
1
1
1
1
1
1
1
1
1
1
1
1
1
1
1
1
1
1
1
1
1
1
1
1
1
1
1
1
1
1
1
1
1
1
1
1
1
1
1
1
1
1
1
1
1
1
1
1
1
1
1
1
1
1
1
1
1
1
1
1
2.71574
3.06628
3.85504
3.29452
3.53709
3.53954
3.34482
2.9024
2.58883
2.48279
2.48449
2.50077
2.5039
2.48107
2.38296
2.23496
2.13991
2.10846
2.11388
2.11908
2.12634
2.12704
2.1234
2.1164
2.10895
2.09401
2.08178
2.07321
2.07153
2.0735
2.091
2.11867
2.17351
2.26522
2.37634
2.49666
2.64347
2.82128
2.99406
3.16732
3.3851
3.58046
3.76664
3.96977
4.14824
4.29281
4.43699
4.57653
4.67883
4.77112
4.83944
4.87975
4.90532
4.91504
4.9172
4.90725
4.88892
4.86324
4.83188
4.79657
4.75786
4.71601
4.67225
4.62635
4.57907
4.53097
4.48223
4.4329
4.38355
4.3343
4.28513
4.23581
4.18676
4.13811
4.09012
4.04321
3.99748
3.95275
3.90926
3.86684
3.82558
3.78513
3.74551
3.70637
3.66786
3.62988
3.59262
3.5559
3.51998
3.4842
3.44893
3.4135
3.37842
3.3428
3.30734
3.27066
3.23379
3.19405
3.1545
3.13179
4.1187
3.98223
3.56032
3.29476
3.67102
3.6755
3.54521
2.94814
2.48549
2.36432
2.40937
2.48328
2.48939
2.43408
2.32539
2.21725
2.14924
2.11538
2.1199
2.1231
2.13041
2.13189
2.12898
2.12177
2.11803
2.10494
2.0863
2.07195
2.07108
2.072
2.09433
2.12412
2.17094
2.25019
2.34884
2.46333
2.61425
2.80097
3.00155
3.17909
3.39416
3.59951
3.76155
3.95455
4.12107
4.24896
4.40339
4.55312
4.66129
4.75564
4.82755
4.87016
4.8965
4.9069
4.90921
4.90117
4.88237
4.85544
4.82333
4.78903
4.75179
4.71106
4.66754
4.62199
4.57474
4.52659
4.47813
4.42911
4.38005
4.33129
4.28257
4.23371
4.18484
4.13623
4.08816
4.04133
3.99569
3.9511
3.90773
3.86538
3.82422
3.78383
3.74426
3.70511
3.66654
3.62853
3.59125
3.55467
3.51886
3.48329
3.44811
3.41285
3.37779
3.34242
3.30688
3.27057
3.23323
3.1931
3.15121
3.12709
4.96479
4.32566
3.93894
3.59332
3.61042
3.55446
3.21228
2.66147
2.45319
2.43756
2.4883
2.51957
2.51617
2.49591
2.43788
2.28814
2.13043
2.07962
2.08087
2.10544
2.12645
2.12669
2.12307
2.11036
2.1071
2.08892
2.08255
2.07239
2.07269
2.07012
2.08602
2.11104
2.16066
2.25085
2.3699
2.49245
2.62247
2.7911
2.95522
3.10432
3.32553
3.53659
3.71892
3.92955
4.10623
4.24547
4.37137
4.51618
4.62955
4.72134
4.78728
4.83242
4.86459
4.87641
4.87768
4.87289
4.85704
4.83415
4.80504
4.77283
4.73676
4.69707
4.65467
4.60985
4.56358
4.51634
4.46863
4.42078
4.37316
4.32549
4.2777
4.22943
4.18095
4.13261
4.08478
4.03816
3.99266
3.94818
3.90485
3.86254
3.82147
3.78121
3.74172
3.70259
3.66401
3.626
3.58873
3.5523
3.5167
3.48141
3.44638
3.41137
3.37638
3.34122
3.30575
3.26967
3.23227
3.19174
3.14773
3.12147
5.38409
4.49898
4.02459
3.67201
3.58122
3.53821
3.27962
2.87995
2.6034
2.46507
2.44563
2.48893
2.49305
2.43403
2.30033
2.15595
2.11344
2.10088
2.11393
2.12967
2.13541
2.13496
2.1352
2.12421
2.12199
2.1103
2.09522
2.06265
2.06373
2.06181
2.08453
2.11415
2.15107
2.22325
2.31102
2.4207
2.57118
2.7423
2.92909
3.09798
3.27614
3.48008
3.67528
3.84429
4.00933
4.14314
4.29043
4.44212
4.57334
4.65749
4.73508
4.78418
4.82444
4.83854
4.84402
4.8453
4.83192
4.81008
4.78079
4.75098
4.71908
4.68257
4.64141
4.59678
4.55025
4.50284
4.4556
4.40906
4.36283
4.31693
4.27078
4.22389
4.17619
4.12795
4.08006
4.03347
3.98825
3.94409
3.90091
3.85876
3.81778
3.77762
3.73814
3.69907
3.6604
3.62232
3.5852
3.54911
3.5138
3.47889
3.44407
3.40935
3.37445
3.33951
3.30407
3.26812
3.23077
3.18994
3.14418
3.11547
5.55106
4.75008
4.14672
3.7956
3.67154
3.56413
3.35222
2.93212
2.55801
2.44245
2.4559
2.50453
2.496
2.44849
2.37432
2.26105
2.1687
2.11082
2.09532
2.10747
2.12698
2.12763
2.12533
2.11027
2.10846
2.08712
2.07558
2.06638
2.0713
2.06528
2.07488
2.09219
2.13807
2.21554
2.30987
2.41256
2.52708
2.67365
2.81826
2.97977
3.14357
3.34799
3.56745
3.75296
3.90924
4.04681
4.20181
4.34393
4.47625
4.57489
4.66802
4.72204
4.75248
4.77239
4.79125
4.79312
4.77632
4.76152
4.74475
4.72277
4.69487
4.6577
4.61687
4.57348
4.52905
4.48446
4.44024
4.3955
4.35062
4.30587
4.26071
4.21495
4.16844
4.12109
4.07356
4.02719
3.98224
3.93825
3.8952
3.85322
3.81243
3.77258
3.73341
3.6946
3.65609
3.61812
3.5812
3.54546
3.51056
3.47602
3.44142
3.40679
3.37196
3.33697
3.30155
3.26563
3.22839
3.18749
3.14069
3.11015
5.71136
4.94363
4.36834
3.96528
3.77952
3.64815
3.47454
3.08243
2.72041
2.5316
2.49885
2.51441
2.50454
2.44554
2.34326
2.21444
2.13647
2.10433
2.1075
2.12412
2.13799
2.13459
2.13404
2.12217
2.11979
2.10268
2.09464
2.06871
2.06908
2.0676
2.0864
2.10921
2.13836
2.18586
2.24279
2.3065
2.38162
2.49178
2.61058
2.77574
2.93258
3.13934
3.35601
3.55393
3.73986
3.92908
4.0934
4.21949
4.33102
4.45209
4.56135
4.6448
4.68876
4.73109
4.72775
4.7254
4.7273
4.725
4.71727
4.69117
4.66524
4.63033
4.59235
4.55329
4.51097
4.46682
4.4225
4.37949
4.33729
4.29459
4.25101
4.20624
4.16003
4.11286
4.06598
4.02011
3.97539
3.93182
3.88934
3.84778
3.80716
3.76756
3.72866
3.69015
3.65194
3.61419
3.57737
3.54187
3.50717
3.47274
3.4382
3.40355
3.36865
3.33356
3.29808
3.26208
3.22488
3.18395
3.13652
3.1048
5.81535
5.09562
4.54838
4.15909
3.89356
3.73411
3.55732
3.27643
2.96772
2.67123
2.52343
2.4987
2.48945
2.45989
2.40496
2.29878
2.19545
2.1339
2.10874
2.11168
2.12457
2.12407
2.12476
2.11393
2.11261
2.09507
2.09186
2.07755
2.09166
2.1037
2.1287
2.1401
2.17498
2.19703
2.20756
2.23714
2.28254
2.33651
2.41128
2.50623
2.62438
2.77795
2.94859
3.13201
3.35955
3.63396
3.91481
4.11416
4.25091
4.34093
4.40796
4.50425
4.59656
4.6576
4.66925
4.65886
4.66469
4.66526
4.66662
4.64942
4.62702
4.60032
4.56276
4.5259
4.48768
4.44723
4.40578
4.3643
4.32262
4.28051
4.23778
4.19377
4.14871
4.10307
4.05737
4.01245
3.96841
3.92516
3.88273
3.84135
3.80112
3.76181
3.72318
3.68504
3.64716
3.60969
3.5732
3.53802
3.50346
3.46901
3.43446
3.39971
3.36463
3.32927
3.29364
3.25757
3.22039
3.17951
3.13172
3.09928
5.89166
5.23149
4.69394
4.3043
4.03176
3.84808
3.64729
3.39988
3.12605
2.86633
2.65492
2.55435
2.53053
2.50797
2.45861
2.34737
2.22861
2.14127
2.10378
2.10635
2.12622
2.13811
2.13837
2.12357
2.11736
2.1072
2.11006
2.127
2.14629
2.19866
2.27224
2.28542
2.30144
2.27947
2.23952
2.2257
2.22695
2.24261
2.28032
2.31948
2.39825
2.49399
2.60125
2.72082
2.89222
3.13339
3.40797
3.75047
4.10203
4.28703
4.34401
4.38741
4.45429
4.53496
4.60051
4.62416
4.6266
4.61141
4.60099
4.60281
4.59116
4.57386
4.53708
4.49756
4.46236
4.42644
4.38879
4.34958
4.30838
4.26537
4.22153
4.1785
4.13598
4.09294
4.04886
4.00416
3.96003
3.91719
3.87558
3.83491
3.79515
3.75626
3.718
3.68018
3.64263
3.60543
3.56898
3.53362
3.49883
3.46405
3.42916
3.39414
3.35896
3.32359
3.28803
3.25206
3.21499
3.17423
3.12626
3.09345
5.94631
5.3475
4.83459
4.43399
4.164
3.94869
3.76889
3.54036
3.29188
3.03723
2.81438
2.6532
2.57745
2.54192
2.49521
2.4239
2.31571
2.21044
2.14056
2.11679
2.1147
2.12494
2.13343
2.13794
2.13238
2.13888
2.13769
2.19767
2.25639
2.44276
2.57173
2.58097
2.55534
2.46535
2.37513
2.29613
2.25038
2.23931
2.23879
2.25511
2.28836
2.32971
2.37448
2.43012
2.53714
2.68182
2.85289
3.13004
3.48853
3.91002
4.26542
4.4113
4.39209
4.40416
4.44976
4.53301
4.55948
4.56143
4.55718
4.55695
4.53656
4.52184
4.50229
4.47366
4.44176
4.40705
4.36967
4.33064
4.2889
4.24666
4.20539
4.16505
4.12456
4.08271
4.03953
3.9955
3.95185
3.90968
3.86873
3.82852
3.78897
3.75018
3.71204
3.67445
3.63726
3.60047
3.5642
3.52859
3.49332
3.4581
3.42276
3.38736
3.35197
3.31654
3.28101
3.24507
3.208
3.16722
3.11901
3.08568
6.00853
5.4471
4.96321
4.56897
4.28856
4.0501
3.8715
3.66289
3.42883
3.18126
2.94608
2.75736
2.63673
2.57175
2.52134
2.476
2.39468
2.29438
2.19396
2.13695
2.12161
2.12806
2.13453
2.14565
2.13828
2.16049
2.18681
2.32199
2.58261
2.92853
3.03376
3.02247
2.91152
2.75131
2.60524
2.47178
2.3876
2.33991
2.30201
2.28048
2.27346
2.27661
2.28658
2.30489
2.35409
2.40356
2.48837
2.65371
2.87476
3.19074
3.63611
4.14416
4.40097
4.41252
4.39704
4.40789
4.44637
4.49348
4.50994
4.50611
4.48745
4.469
4.46012
4.44587
4.42069
4.38751
4.348
4.30592
4.26559
4.2263
4.18729
4.14798
4.10814
4.06729
4.02557
3.98377
3.94179
3.90029
3.85973
3.82018
3.78144
3.74327
3.70557
3.66831
3.63138
3.59473
3.55839
3.52226
3.48623
3.45022
3.41431
3.37865
3.3432
3.30788
3.27255
3.23679
3.19983
3.15914
3.11082
3.07716
6.06651
5.53735
5.07187
4.6892
4.38876
4.14814
3.95871
3.76414
3.5372
3.3084
3.07878
2.87425
2.72117
2.6277
2.56969
2.51646
2.44857
2.365
2.28052
2.20393
2.16057
2.1435
2.14062
2.14765
2.16011
2.20486
2.30396
2.60762
3.09287
3.51987
3.55667
3.48049
3.27516
3.04917
2.85497
2.7222
2.61804
2.52984
2.45203
2.38726
2.33524
2.29849
2.27592
2.26748
2.27612
2.28106
2.31802
2.37843
2.46916
2.63791
2.93142
3.32473
3.85072
4.30056
4.46196
4.39138
4.36608
4.38287
4.41767
4.43562
4.44489
4.43913
4.42362
4.40452
4.38421
4.35796
4.32408
4.28535
4.24502
4.20671
4.17004
4.13302
4.09472
4.05417
4.01198
3.97014
3.92947
3.88937
3.84974
3.81092
3.77289
3.73544
3.69839
3.66169
3.62519
3.58866
3.55216
3.51557
3.47875
3.442
3.40569
3.36994
3.33458
3.29939
3.26408
3.22826
3.19125
3.15049
3.1019
3.06788
6.11488
5.62081
5.17086
4.78601
4.47216
4.23746
4.03127
3.8465
3.64271
3.4263
3.20613
2.9956
2.82375
2.70273
2.62225
2.5734
2.50611
2.4358
2.35377
2.27387
2.21279
2.16766
2.15132
2.15746
2.19236
2.28058
2.52203
3.06801
3.8088
4.0972
4.01726
3.83535
3.57534
3.34004
3.1481
2.99218
2.85338
2.73554
2.64034
2.5599
2.48524
2.41642
2.34853
2.299
2.26856
2.25845
2.25602
2.25631
2.27973
2.35601
2.47648
2.67683
3.02515
3.50714
4.09553
4.41456
4.42989
4.36228
4.33377
4.34232
4.36749
4.37964
4.37673
4.36203
4.34307
4.32081
4.29057
4.25732
4.22182
4.18303
4.14598
4.10996
4.07418
4.0372
3.99768
3.95667
3.9159
3.87678
3.83895
3.80132
3.76384
3.72688
3.69029
3.65406
3.6179
3.58157
3.5451
3.50833
3.47093
3.43344
3.39654
3.36056
3.32519
3.28999
3.25461
3.21877
3.18174
3.14089
3.09196
3.0575
6.14386
5.68143
5.2533
4.87466
4.55509
4.31264
4.10349
3.92434
3.73663
3.52389
3.32079
3.11788
2.93395
2.7906
2.6856
2.61745
2.56077
2.49755
2.41408
2.3388
2.26556
2.19908
2.17236
2.18828
2.25674
2.44223
2.93209
3.75798
4.48572
4.46919
4.33987
4.12304
3.89021
3.67704
3.47368
3.28359
3.1194
2.98092
2.86468
2.75751
2.65488
2.56609
2.49136
2.42138
2.35527
2.30142
2.25591
2.23009
2.2221
2.23488
2.25975
2.34221
2.49588
2.76535
3.17996
3.76014
4.27848
4.45514
4.36875
4.28905
4.27617
4.29559
4.33183
4.32195
4.29767
4.27634
4.25714
4.23235
4.20342
4.16827
4.12831
4.08971
4.05307
4.01806
3.98332
3.94604
3.90566
3.86502
3.82663
3.79053
3.75464
3.71883
3.68282
3.64693
3.61099
3.57484
3.53843
3.50143
3.46359
3.42556
3.38823
3.35206
3.31661
3.28132
3.24577
3.20971
3.17236
3.13113
3.08157
3.04637
6.1919
5.74757
5.33341
4.96371
4.64342
4.38644
4.17652
3.99952
3.81324
3.6184
3.42932
3.23907
3.042
2.88585
2.76558
2.67965
2.61068
2.5405
2.4727
2.40774
2.32297
2.25208
2.21746
2.25731
2.40317
2.79879
3.59114
4.46438
4.77734
4.72752
4.56502
4.362
4.15374
3.94446
3.73383
3.54163
3.36837
3.21181
3.07081
2.94338
2.8331
2.73766
2.64997
2.56609
2.48272
2.4007
2.33242
2.27749
2.23365
2.20483
2.19633
2.21198
2.24771
2.35255
2.54356
2.88802
3.36722
3.98606
4.34926
4.39069
4.29431
4.22923
4.21938
4.23552
4.24533
4.23795
4.22662
4.20225
4.16644
4.13257
4.10331
4.07375
4.04168
4.00395
3.9646
3.92673
3.89011
3.85383
3.81674
3.77921
3.74313
3.70814
3.67318
3.63815
3.6027
3.5665
3.52979
3.49255
3.45433
3.41573
3.37801
3.34155
3.30575
3.27003
3.23402
3.19748
3.15974
3.11811
3.0679
3.03173
6.22552
5.79951
5.39721
5.03745
4.71763
4.46196
4.2557
4.07126
3.89109
3.71277
3.52463
3.34323
3.16035
2.98583
2.85351
2.74469
2.65774
2.59491
2.5274
2.4502
2.35659
2.3215
2.32428
2.4156
2.72513
3.42239
4.36824
4.89719
4.89599
4.82755
4.69873
4.53942
4.36323
4.17015
3.97586
3.78369
3.60031
3.43166
3.28039
3.144
3.0229
2.90925
2.80771
2.70939
2.60826
2.52545
2.45952
2.39246
2.32722
2.2631
2.21409
2.17941
2.17028
2.19577
2.2534
2.39659
2.62306
3.00139
3.54512
4.13397
4.39507
4.33612
4.19161
4.15253
4.16043
4.1927
4.19184
4.17639
4.14505
4.10838
4.07525
4.0487
4.02537
3.99579
3.95596
3.91284
3.87389
3.83821
3.8038
3.7682
3.73217
3.69706
3.66227
3.62759
3.59277
3.55735
3.52104
3.48376
3.44523
3.40607
3.36785
3.33093
3.29464
3.25853
3.2222
3.18509
3.14676
3.10444
3.05329
3.01593
6.27558
5.86341
5.46491
5.11343
4.79283
4.53038
4.33166
4.14516
3.97168
3.79837
3.61722
3.44122
3.27326
3.09521
2.93773
2.80978
2.71362
2.64406
2.56484
2.48165
2.42822
2.40647
2.4754
2.71911
3.31276
4.25133
4.87815
4.98121
4.95233
4.88843
4.79902
4.68177
4.5357
4.36497
4.17876
3.99157
3.80835
3.63723
3.47692
3.33065
3.19496
3.0742
2.95822
2.8503
2.7568
2.67263
2.59314
2.51239
2.4301
2.35352
2.28757
2.22336
2.18222
2.1545
2.1578
2.18494
2.25373
2.42713
2.72843
3.16379
3.7832
4.23747
4.35662
4.23144
4.09829
4.07992
4.10039
4.12627
4.1111
4.08866
4.06097
4.02749
3.99419
3.96562
3.93601
3.9004
3.86197
3.82427
3.78819
3.75484
3.72124
3.68707
3.65234
3.6174
3.58221
3.54665
3.51056
3.47372
3.43545
3.39583
3.35647
3.31834
3.281
3.24391
3.20681
3.16881
3.12958
3.08662
3.03471
2.99637
6.29741
5.92314
5.53648
5.19305
4.87663
4.6029
4.40567
4.2213
4.04498
3.87969
3.71222
3.54086
3.36557
3.19448
3.0239
2.88454
2.78246
2.68425
2.58869
2.53167
2.53073
2.55854
2.74242
3.28007
4.1631
4.88102
5.05195
5.02384
4.98296
4.93376
4.86974
4.77647
4.65424
4.50834
4.34739
4.17561
4.00164
3.82959
3.66406
3.50835
3.36853
3.22956
3.10442
2.99958
2.90296
2.808
2.70867
2.61486
2.5271
2.44871
2.37491
2.30514
2.24226
2.18521
2.15308
2.12072
2.13813
2.17607
2.2808
2.48129
2.86163
3.3589
3.99307
4.27773
4.26027
4.1255
4.04964
4.02622
4.04064
4.03765
4.0332
4.01375
3.97677
3.93502
3.90114
3.8727
3.84252
3.8103
3.77503
3.73739
3.70212
3.66951
3.63655
3.60287
3.56882
3.53406
3.49843
3.46214
3.42421
3.38401
3.34345
3.30414
3.26582
3.22786
3.19033
3.15206
3.11188
3.06816
3.01542
2.97613
6.34742
5.99152
5.62583
5.278
4.96711
4.68098
4.4757
4.30067
4.11798
3.94863
3.79357
3.63352
3.46414
3.28439
3.10724
2.96118
2.84366
2.72317
2.64304
2.61154
2.65427
2.81873
3.27982
4.12218
4.94422
5.16742
5.11706
5.06106
5.01805
4.97691
4.92422
4.84838
4.74618
4.62269
4.4772
4.32278
4.1608
3.99872
3.83485
3.68184
3.52522
3.38265
3.26262
3.14939
3.03267
2.92494
2.81802
2.71972
2.63069
2.5473
2.46774
2.39441
2.32471
2.26278
2.20743
2.15094
2.11788
2.09209
2.10662
2.17516
2.30685
2.57573
2.98504
3.55433
4.10638
4.29795
4.18764
4.03522
3.96858
3.95676
3.96744
3.97049
3.96121
3.93003
3.88975
3.85103
3.81857
3.79034
3.76107
3.72736
3.68919
3.653
3.61967
3.58756
3.55555
3.52279
3.48768
3.45068
3.41146
3.36999
3.32817
3.28766
3.24823
3.20893
3.17012
3.13142
3.09023
3.04522
2.99188
2.95201
6.3716
6.07075
5.7317
5.3818
5.07051
4.77851
4.54765
4.37461
4.19277
4.01551
3.85827
3.70552
3.5472
3.37593
3.19733
3.04078
2.89243
2.77842
2.73006
2.74553
2.88455
3.29679
4.0949
5.01771
5.34288
5.25611
5.16332
5.10448
5.06331
5.02001
4.96664
4.90018
4.81471
4.70878
4.58286
4.44219
4.29277
4.13257
3.97508
3.81339
3.66103
3.53478
3.4029
3.27278
3.14631
3.03207
2.92925
2.82791
2.72764
2.63645
2.55137
2.47234
2.39783
2.33221
2.27285
2.2163
2.16082
2.1098
2.07069
2.07019
2.08046
2.17277
2.34281
2.66878
3.15625
3.80014
4.16079
4.18095
4.05103
3.93172
3.87656
3.88297
3.90412
3.89833
3.87672
3.8439
3.80791
3.77221
3.73999
3.70974
3.67546
3.63857
3.60402
3.57238
3.54075
3.50872
3.47469
3.43875
3.3998
3.35618
3.31143
3.2688
3.22817
3.18805
3.14782
3.10882
3.06796
3.02183
2.96766
2.92742
6.4073
6.11971
5.80767
5.47734
5.17357
4.88482
4.61749
4.43911
4.26392
4.0832
3.9216
3.76782
3.61265
3.45073
3.28064
3.11346
2.94293
2.87745
2.87173
2.98063
3.34238
4.09421
5.09503
5.56201
5.46534
5.34263
5.24803
5.17941
5.12181
5.06429
5.00578
4.94152
4.86806
4.7774
4.6728
4.54607
4.40788
4.25543
4.10237
3.94386
3.80363
3.65771
3.51117
3.37765
3.26246
3.14551
3.03684
2.9342
2.83508
2.73884
2.65158
2.5709
2.49743
2.42901
2.36162
2.29928
2.23492
2.16716
2.09977
2.04728
2.03164
2.03113
2.06705
2.21282
2.44328
2.80074
3.32975
3.91016
4.15695
4.0933
3.94033
3.84772
3.8101
3.82348
3.82401
3.81671
3.79677
3.76478
3.72255
3.68185
3.64814
3.61699
3.58541
3.55499
3.52334
3.49057
3.45666
3.4208
3.38186
3.33707
3.29021
3.24629
3.20444
3.16326
3.12196
3.08168
3.04087
2.99502
2.94069
2.90031
6.44086
6.17619
5.8924
5.56895
5.25942
4.98128
4.7011
4.48983
4.32052
4.13745
3.97477
3.82497
3.6745
3.51624
3.3512
3.16566
3.04986
3.0011
3.09627
3.4212
4.13591
5.16635
5.71687
5.65797
5.55224
5.4423
5.33775
5.24703
5.17201
5.10565
5.0419
4.97595
4.90569
4.82508
4.73175
4.62387
4.50089
4.36935
4.22517
4.08127
3.93038
3.77725
3.637
3.50512
3.38181
3.26326
3.15059
3.04377
2.94254
2.8465
2.75385
2.66868
2.58955
2.51498
2.44319
2.37357
2.29916
2.22545
2.15077
2.08632
2.03704
2.01297
2.00254
2.03139
2.10238
2.25066
2.54849
2.96239
3.54428
3.97582
4.07716
3.97536
3.84083
3.77382
3.76038
3.76537
3.767
3.75233
3.71739
3.67162
3.62904
3.59585
3.56612
3.53867
3.50982
3.47542
3.43813
3.39956
3.35987
3.31696
3.26958
3.22257
3.17854
3.13629
3.09392
3.05283
3.01196
2.96748
2.91384
2.87356
6.37087
6.21152
5.94327
5.6667
5.35938
5.07287
4.79456
4.54332
4.36955
4.18911
4.01217
3.87217
3.72977
3.58516
3.41502
3.25964
3.20894
3.24515
3.52476
4.2064
5.2512
5.86132
5.84244
5.77625
5.67453
5.55694
5.44036
5.33534
5.2426
5.16084
5.08647
5.01435
4.9413
4.86485
4.7805
4.68572
4.5776
4.45777
4.32665
4.18888
4.04564
3.90391
3.7628
3.62566
3.49499
3.3707
3.2517
3.13769
3.03001
2.92776
2.83124
2.74135
2.65784
2.58011
2.50678
2.43532
2.36426
2.29453
2.22691
2.16925
2.10991
2.05122
2.00416
1.96896
1.98325
2.03237
2.13449
2.33315
2.64899
3.11185
3.70974
3.98036
3.96018
3.8418
3.75091
3.70709
3.70131
3.70275
3.68553
3.65268
3.61248
3.57177
3.53847
3.51106
3.4819
3.45238
3.4179
3.37949
3.33806
3.29331
3.24388
3.19427
3.1491
3.10756
3.06527
3.02351
2.98191
2.93772
2.88489
2.84525
5.86052
6.27243
6.02757
5.73772
5.43616
5.14249
4.86804
4.60243
4.40723
4.24415
4.0693
3.91439
3.79528
3.65994
3.5068
3.42052
3.4489
3.69228
4.32053
5.3686
6.06896
6.05927
6.00059
5.89388
5.76899
5.64866
5.53445
5.42256
5.31513
5.21688
5.13017
5.05074
4.97268
4.89488
4.81333
4.72592
4.6282
4.52072
4.40296
4.2768
4.14495
4.00829
3.86943
3.7323
3.5992
3.47142
3.34979
3.23419
3.12538
3.02231
2.92813
2.8387
2.75544
2.675
2.59729
2.52216
2.44886
2.37845
2.31586
2.25173
2.18781
2.12284
2.06125
2.00316
1.9682
1.97006
1.98561
2.03842
2.16014
2.40795
2.79593
3.28009
3.75337
3.92505
3.86804
3.7566
3.66733
3.62758
3.62746
3.62279
3.59593
3.55825
3.51882
3.4819
3.45103
3.42452
3.3927
3.35472
3.31217
3.26601
3.2143
3.16275
3.11677
3.07535
3.03375
2.99187
2.95043
2.90709
2.85533
2.81607
4.58684
5.83592
5.88652
5.68616
5.45259
5.1774
4.93854
4.67862
4.44817
4.29896
4.14421
3.97761
3.8543
3.73831
3.65697
3.66963
3.89184
4.50742
5.55396
6.29725
6.31641
6.25957
6.13945
6.00404
5.8817
5.76665
5.64835
5.52535
5.40438
5.29137
5.18871
5.09724
5.01206
4.93004
4.84666
4.76086
4.66948
4.57118
4.46423
4.34937
4.2274
4.09972
3.96949
3.83738
3.70646
3.5781
3.45296
3.33231
3.21727
3.11028
3.00994
2.91643
2.82795
2.74325
2.66286
2.58039
2.50402
2.43352
2.36819
2.30785
2.24113
2.17435
2.1075
2.05032
2.00243
1.97077
1.95365
1.93616
1.97849
2.07163
2.21825
2.52405
2.94266
3.49422
3.80532
3.82807
3.75159
3.64023
3.58211
3.55749
3.54913
3.53467
3.50685
3.46229
3.42244
3.38666
3.35702
3.32502
3.28572
3.2389
3.18477
3.13052
3.08333
3.04221
3.00136
2.96002
2.91943
2.87643
2.82382
2.78441
3.39164
5.15608
5.89122
5.74806
5.51972
5.28959
5.046
4.80646
4.55857
4.38986
4.2349
4.06349
3.93157
3.86654
3.89563
4.11153
4.7266
5.76257
6.62922
6.68388
6.56889
6.40966
6.2523
6.12378
6.00637
5.88069
5.74825
5.61503
5.48528
5.36118
5.24483
5.13916
5.04472
4.95683
4.86995
4.78289
4.69368
4.60033
4.50144
4.39596
4.28427
4.16747
4.04586
3.92103
3.79439
3.66691
3.54108
3.41872
3.30199
3.19285
3.09308
2.99992
2.91101
2.82542
2.742
2.65984
2.58255
2.50673
2.43384
2.36638
2.29903
2.23326
2.16981
2.11433
2.06589
2.01985
1.97856
1.94764
1.93578
1.9452
1.96113
2.07271
2.27789
2.62736
3.10999
3.6035
3.7898
3.7467
3.63474
3.543
3.49375
3.47089
3.44991
3.42409
3.39447
3.3592
3.32622
3.29144
3.24995
3.19958
3.14457
3.09164
3.046
3.0056
2.96549
2.92412
2.88211
2.84019
2.78822
2.74869
2.37974
4.08758
5.5042
5.84531
5.63142
5.41123
5.15626
4.92094
4.69245
4.48446
4.3248
4.16581
4.0652
4.09424
4.32498
4.96397
6.05044
6.99777
7.08235
6.94793
6.74
6.53985
6.39299
6.2691
6.13515
5.99348
5.85293
5.71546
5.5801
5.44686
5.31866
5.19907
5.09126
4.99368
4.9012
4.8102
4.71912
4.62681
4.53171
4.43292
4.32989
4.22214
4.10979
3.99375
3.87421
3.75268
3.62975
3.50889
3.3915
3.28044
3.17677
3.07992
2.9882
2.89918
2.81238
2.73026
2.64447
2.56113
2.48286
2.41239
2.35264
2.28748
2.22189
2.16308
2.11094
2.06376
2.01818
1.97304
1.93943
1.91971
1.90423
1.89276
1.96353
2.12078
2.40026
2.79368
3.32575
3.65311
3.67965
3.61378
3.50728
3.41724
3.37028
3.36656
3.34599
3.32023
3.28942
3.25597
3.21486
3.16193
3.10502
3.05296
3.00964
2.97119
2.93186
2.89029
2.84697
2.80326
2.75258
2.71386
1.5628
2.77974
4.50076
5.61166
5.66413
5.47484
5.26115
5.03611
4.81257
4.571
4.3912
4.30086
4.3065
4.53631
5.20563
6.36161
7.39879
7.58509
7.33635
7.05209
6.82706
6.67114
6.53213
6.38648
6.23412
6.08705
5.94484
5.80312
5.66155
5.52125
5.38452
5.25439
5.13399
5.02557
4.92473
4.82868
4.73439
4.64038
4.5459
4.45029
4.3526
4.25226
4.1484
4.04052
3.9289
3.8134
3.6948
3.5758
3.45919
3.34823
3.24376
3.14523
3.05173
2.96124
2.87268
2.78682
2.70277
2.62278
2.54823
2.47821
2.41036
2.34278
2.27766
2.21843
2.16645
2.12074
2.07607
2.0323
1.98832
1.94205
1.89556
1.86631
1.85956
1.89134
1.98312
2.17774
2.54421
2.96205
3.40434
3.60253
3.57332
3.47633
3.37728
3.3081
3.26724
3.24866
3.23478
3.2148
3.1837
3.13379
3.07338
3.01723
2.97036
2.93229
2.89375
2.85031
2.80485
2.75773
2.70811
2.67192
1.12587
1.84298
3.33107
4.9416
5.66207
5.56045
5.36036
5.15503
4.92251
4.66854
4.51843
4.5249
4.75832
5.47122
6.72818
7.8953
8.13595
7.82738
7.45957
7.19834
7.03062
6.86938
6.70614
6.53304
6.36622
6.20974
6.05708
5.90612
5.75746
5.61129
5.46774
5.32895
5.19743
5.07624
4.9647
4.85964
4.759
4.66095
4.56521
4.47048
4.37593
4.28042
4.18302
4.08278
3.97857
3.87081
3.75912
3.6472
3.53631
3.42896
3.32595
3.22774
3.13239
3.04033
2.95056
2.86283
2.77733
2.69496
2.61684
2.54052
2.46609
2.39734
2.33448
2.27362
2.21989
2.17296
2.12689
2.08277
2.03583
1.98838
1.93643
1.87881
1.83477
1.82824
1.8348
1.89409
2.00607
2.23564
2.60765
3.13008
3.41125
3.47848
3.43544
3.32942
3.23857
3.18525
3.1654
3.15032
3.13056
3.09233
3.03543
2.97804
2.92911
2.88802
2.84869
2.80862
2.76372
2.71784
2.67041
2.6352
1.03466
1.30141
2.38347
3.90502
5.21498
5.59302
5.44523
5.22267
4.97724
4.78988
4.7527
5.00129
5.7621
7.16162
8.38774
8.62389
8.27701
7.85524
7.55756
7.37796
7.20968
7.03282
6.84823
6.6606
6.48193
6.3133
6.15107
5.9925
5.83668
5.68396
5.53397
5.38787
5.2472
5.11484
4.99249
4.87799
4.76941
4.66569
4.5666
4.47164
4.37867
4.28595
4.1926
4.09765
3.99915
3.89716
3.79179
3.68528
3.5793
3.47473
3.37259
3.27353
3.1777
3.08436
2.99329
2.90527
2.82104
2.74113
2.66472
2.59088
2.51902
2.45005
2.38457
2.32418
2.26974
2.2201
2.17342
2.12774
2.08229
2.03748
1.98845
1.93439
1.87824
1.83008
1.80826
1.79824
1.78295
1.87103
2.06065
2.33216
2.73867
3.16094
3.35765
3.3435
3.26919
3.18151
3.12242
3.08817
3.0636
3.031
2.98532
2.93917
2.88759
2.83823
2.79355
2.75343
2.71481
2.6736
2.62757
2.59211
1.00957
1.05718
1.47383
2.54415
4.0529
5.12754
5.30633
5.15822
4.98563
4.9562
5.21946
6.11483
7.76414
9.04345
9.15973
8.76263
8.28926
7.96719
7.77662
7.60773
7.42322
7.22366
7.0135
6.81094
6.61896
6.43688
6.26304
6.09438
5.93016
5.7698
5.61352
5.46097
5.3137
5.17258
5.04063
4.91665
4.79827
4.68599
4.58115
4.48403
4.3917
4.30052
4.20942
4.11702
4.02213
3.92493
3.82652
3.72832
3.63082
3.53428
3.43861
3.34415
3.25024
3.15774
3.06679
2.9781
2.8928
2.81086
2.73262
2.65728
2.58457
2.51539
2.44974
2.38684
2.3286
2.27637
2.22735
2.17928
2.13351
2.08437
2.03385
1.97886
1.9223
1.86898
1.82238
1.7796
1.75821
1.75458
1.80505
1.87654
2.08436
2.42976
2.8276
3.12079
3.22651
3.19968
3.1299
3.05552
2.99912
2.96251
2.93007
2.88742
2.83951
2.78787
2.74435
2.70547
2.67009
2.63143
2.58512
2.54925
1.00247
1.01813
0.986872
1.59466
2.8971
4.43312