/*--------------------------------*- C++ -*----------------------------------*\
| =========                 |                                                 |
| \\      /  F ield         | OpenFOAM: The Open Source CFD Toolbox           |
|  \\    /   O peration     | Version:  v2106                                 |
|   \\  /    A nd           | Website:  www.openfoam.com                      |
|    \\/     M anipulation  |                                                 |
\*---------------------------------------------------------------------------*/
FoamFile
{
    version     2.0;
    format      ascii;
    arch        "LSB;label=32;scalar=64";
    class       surfaceScalarField;
    location    "10";
    object      phi;
}
// * * * * * * * * * * * * * * * * * * * * * * * * * * * * * * * * * * * * * //

dimensions      [1 0 -1 0 0 0 0];

oriented        oriented;

internalField   nonuniform List<scalar> 
10325
(
0.0084507
-1.92988e-17
0.0084507
2.47469e-17
0.0084507
4.99275e-16
0.0084507
1.05693e-15
0.0084507
4.11827e-14
0.0084507
7.9877e-14
0.0084507
3.22675e-12
0.0084507
9.35066e-12
0.00845067
2.39495e-10
0.00845041
1.21975e-09
0.00844813
1.83929e-08
0.008428
1.26009e-07
0.00826276
1.34721e-06
0.00743647
1.44888e-05
0.00646606
2.34356e-05
0.00601301
0.000861947
0.00698796
0.000556454
0.00636993
0.000619251
0.00563702
0.000678877
0.00491887
0.000748248
0.00410077
0.000817805
0.00320569
0.000891304
0.00224213
0.000967262
0.00119
0.0010576
0.00119294
0.0084507
-2.97885e-17
0.0084507
3.895e-17
0.0084507
1.07032e-15
0.0084507
-5.24727e-16
0.0084507
8.99293e-14
0.0084507
-1.49237e-13
0.0084507
7.11692e-12
0.0084507
-4.27175e-12
0.00845067
5.41738e-10
0.00845042
1.10373e-09
0.00844821
3.92364e-08
0.00842867
2.05878e-07
0.00826844
2.879e-06
0.0074502
2.94619e-05
0.00646755
5.69633e-05
0.00594967
0.00171685
0.00693596
0.00117158
0.00632255
0.00123539
0.00559552
0.0013553
0.00487028
0.00150152
0.00403879
0.00165029
0.00314486
0.00178369
0.00217329
0.0019438
0.00111177
0.00212601
0.00230873
0.0084507
-5.49148e-17
0.0084507
9.14525e-17
0.0084507
1.81398e-15
0.0084507
-1.91719e-15
0.0084507
1.6643e-13
0.0084507
-1.09289e-12
0.0084507
1.36456e-11
0.0084507
-1.8507e-10
0.00845067
8.97839e-10
0.00845044
-3.73678e-09
0.00844839
6.37156e-08
0.00843015
1.1676e-07
0.00828133
4.32952e-06
0.007485
4.21203e-05
0.0064937
8.89896e-05
0.00589425
0.00246235
0.00690724
0.00194763
0.00627794
0.00187079
0.00551608
0.00206839
0.00480661
0.00224438
0.00402478
0.00243616
0.00314563
0.00266389
0.00217737
0.00292277
0.00111529
0.00320043
0.00343465
0.0084507
-9.45695e-17
0.0084507
1.59296e-16
0.0084507
2.06326e-15
0.0084507
7.04791e-15
0.0084507
1.84406e-13
0.0084507
-3.5703e-13
0.0084507
2.00431e-11
0.0084507
-2.08371e-10
0.00845068
1.7885e-09
0.00845048
-3.20915e-08
0.00844865
9.28825e-08
0.00843232
-4.85841e-07
0.00829937
5.81041e-06
0.0075362
5.19619e-05
0.00652643
0.000126093
0.0058645
0.00292722
0.00699856
0.00292504
0.00634032
0.00253502
0.00556519
0.00279632
0.00485528
0.00299009
0.00406419
0.00323102
0.00318331
0.00354612
0.00221757
0.00389954
0.00114077
0.00428974
0.00458524
0.0084507
4.82199e-17
0.0084507
2.27411e-17
0.0084507
2.536e-15
0.0084507
-6.02193e-16
0.0084507
2.18369e-13
0.0084507
9.46905e-13
0.0084507
1.58182e-11
0.0084507
2.13327e-11
0.00845068
1.79243e-09
0.00845049
-2.631e-08
0.0084489
1.50649e-07
0.00843513
-2.14068e-06
0.00832261
6.89147e-06
0.00760885
5.70058e-05
0.00659025
0.000154863
0.00602082
0.00315493
0.00716411
0.00398045
0.00647327
0.00322686
0.00568124
0.00354476
0.00494349
0.00377517
0.00418825
0.00399658
0.00330502
0.00443937
0.00232412
0.00489604
0.00120374
0.00542687
0.00580387
0.0084507
5.86553e-17
0.0084507
-5.36409e-17
0.0084507
-1.29915e-16
0.0084507
-1.61494e-14
0.0084507
1.08523e-13
0.0084507
-2.96474e-13
0.0084507
1.99835e-11
0.0084507
7.381e-11
0.00845069
1.4003e-09
0.00845052
4.47909e-09
0.00844925
1.47437e-07
0.00843658
-1.3817e-06
0.00834413
6.53401e-06
0.00769365
5.52059e-05
0.00668412
0.000154028
0.00629289
0.00304422
0.00744252
0.0051313
0.00669768
0.00396971
0.00589452
0.00429842
0.00510916
0.00460562
0.00433054
0.00478434
0.00343137
0.00534706
0.00243414
0.0059087
0.00127501
0.00660802
0.00710404
0.0084507
-1.62576e-16
0.0084507
6.35044e-16
0.0084507
-5.49737e-15
0.0084507
1.9124e-14
0.0084507
-5.17615e-13
0.0084507
-1.33287e-12
0.0084507
2.23581e-11
0.0084507
8.06117e-12
0.00845069
1.22243e-09
0.00845058
3.70778e-09
0.00844977
7.59799e-08
0.00843861
4.58953e-07
0.00836645
5.01971e-06
0.00779264
4.71664e-05
0.00677261
0.000156899
0.00663243
0.00247691
0.00801316
0.00617678
0.00716478
0.00482131
0.00631383
0.00510334
0.00549383
0.00549384
0.00472905
0.00557218
0.00383962
0.0062657
0.00271601
0.0070682
0.00149284
0.00785624
0.00863169
0.0084507
3.04661e-17
0.0084507
-3.99447e-16
0.0084507
-1.80032e-16
0.0084507
2.75277e-14
0.0084507
3.71511e-14
0.0084507
1.41292e-12
0.0084507
-5.78103e-12
0.0084507
6.36845e-12
0.0084507
7.25829e-10
0.00845057
4.67056e-09
0.00845002
5.64442e-08
0.00844105
4.38765e-07
0.00838337
4.42001e-06
0.00787298
4.1718e-05
0.00681117
0.000211231
0.00662912
0.00189949
0.00841004
0.00682769
0.00758386
0.00565152
0.00680453
0.00583652
0.00597834
0.00638247
0.00511512
0.00647063
0.0040727
0.00732476
0.00299189
0.00818681
0.00171821
0.00916829
0.0104296
0.0084507
1.39347e-16
0.0084507
-1.29849e-15
0.0084507
-6.73561e-16
0.0084507
2.41331e-14
0.0084507
2.16349e-13
0.0084507
2.15965e-12
0.0084507
-3.32051e-11
0.0084507
1.21964e-11
0.0084507
4.57925e-10
0.00845059
5.06782e-09
0.0084502
4.30392e-08
0.00844292
4.14853e-07
0.00839913
3.69819e-06
0.0079698
3.4936e-05
0.00694631
0.000234244
0.00657221
0.00149081
0.00851269
0.00722442
0.00792631
0.0062362
0.00724467
0.00648421
0.00652405
0.00713215
0.00569687
0.00736074
0.00482251
0.00826164
0.0037909
0.00927999
0.0025249
0.0104877
0.013126
0.0084507
7.94178e-17
0.0084507
2.5926e-16
0.0084507
7.10147e-15
0.0084507
-6.02621e-15
0.0084507
5.637e-13
0.0084507
1.57958e-12
0.0084507
2.39999e-11
0.0084507
2.00881e-10
0.0084507
-8.6334e-11
0.0084506
8.41075e-09
0.0084504
2.03604e-08
0.00844372
5.44716e-07
0.00841238
2.85728e-06
0.00810599
-5.08766e-05
0.00715424
0.00025357
0.00656511
0.00126125
0.00846307
0.00758586
0.00819307
0.00650612
0.00775421
0.00693397
0.00710857
0.00781015
0.00629321
0.00821512
0.00542512
0.00916441
0.00440552
0.0103652
0.0027102
0.0122158
0.0163579
0.0084507
1.14383e-17
0.0084507
8.67362e-18
0.0084507
5.02609e-15
0.0084507
2.10234e-14
0.0084507
9.12226e-14
0.0084507
1.60951e-12
0.0084507
8.70629e-12
0.0084507
1.626e-10
0.0084507
-2.93561e-11
0.00845065
7.15368e-09
0.00845035
2.03164e-08
0.00844652
4.80942e-07
0.00841761
2.76626e-06
0.00815265
-5.37962e-05
0.00724505
0.000242752
0.00655049
0.0010875
0.00819764
0.00761638
0.00832604
0.00685995
0.00814736
0.00718117
0.00763414
0.00829741
0.00697293
0.00893481
0.00630351
0.00992338
0.00594333
0.0109321
0.00584525
0.0126984
0.0139213
0.00909728
0.0084507
-2.92192e-17
0.0084507
1.99032e-16
0.0084507
4.15163e-15
0.0084507
3.7251e-15
0.0084507
6.84996e-14
0.0084507
7.47824e-13
0.0084507
6.62229e-12
0.0084507
2.40892e-11
0.0084507
2.25677e-10
0.00845069
2.41152e-09
0.00845037
1.18334e-08
0.00844902
2.44691e-07
0.00842813
5.57537e-07
0.00821175
2.04821e-05
0.0073664
0.000191432
0.0066219
0.000903304
0.00760272
0.00757834
0.00813792
0.00744048
0.00804564
0.00733391
0.00799798
0.00833875
0.00767146
0.00925637
0.00731906
0.0103001
0.00748283
0.0108234
0.00800238
0.0119631
0.0123802
0.0103744
0.0084507
-3.96547e-17
0.0084507
-9.05309e-18
0.0084507
1.50428e-15
0.0084507
-9.07214e-15
0.0084507
4.42916e-14
0.0084507
2.80447e-13
0.0084507
4.61631e-12
0.0084507
1.16846e-11
0.0084507
9.3627e-11
0.00845068
2.49205e-09
0.00845051
4.56413e-09
0.00844906
2.02699e-07
0.00843558
-1.62892e-07
0.00833637
1.3223e-05
0.00769627
0.00012799
0.00690524
0.000638154
0.00759988
0.00665841
0.00850729
0.0086677
0.00808871
0.00769098
0.00805717
0.00835789
0.00814153
0.00919124
0.0082969
0.0101741
0.0086071
0.0106929
0.00919737
0.0113321
0.0114129
0.0107786
0.0084507
-1.70762e-17
0.0084507
6.36427e-17
0.0084507
-8.30661e-16
0.0084507
8.38088e-17
0.0084507
6.93065e-14
0.0084507
-3.23593e-13
0.0084507
1.88006e-12
0.0084507
-1.74102e-11
0.0084507
2.12098e-11
0.0084507
1.71879e-09
0.00845058
9.64278e-09
0.00844991
1.22578e-07
0.00843991
9.05018e-07
0.00837849
9.01426e-06
0.00787204
8.33442e-05
0.0070353
0.000399648
0.00774467
0.0049182
0.00917413
0.00996128
0.00863448
0.00825419
0.0083816
0.00855356
0.00848405
0.0090933
0.00882402
0.00991006
0.00932485
0.0103673
0.00989655
0.0108613
0.0105696
0.0112161
0.0084507
8.5652e-18
0.0084507
8.01496e-17
0.0084507
1.25046e-15
0.0084507
1.74709e-14
0.0084507
-2.06268e-14
0.0084507
5.20951e-13
0.0084507
3.4993e-13
0.0084507
3.00624e-11
0.0084507
3.19722e-10
0.00845071
-7.24042e-11
0.00845057
1.1231e-08
0.00845041
4.64345e-08
0.00844303
2.73387e-07
0.00840945
6.55484e-06
0.00809206
-4.29381e-05
0.00716571
0.000386764
0.00765544
0.00325095
0.00995972
0.0104429
0.00943039
0.0089036
0.00908749
0.00901758
0.00894824
0.00923885
0.00916445
0.00973128
0.00964766
0.00999463
0.0102582
0.0103436
0.00991119
0.0113001
0.0084507
3.84892e-18
0.0084507
-2.79182e-18
0.0084507
3.31901e-16
0.0084507
9.82691e-15
0.0084507
-4.29017e-14
0.0084507
3.92121e-13
0.0084507
-9.04569e-13
0.0084507
1.66369e-11
0.0084507
2.25101e-10
0.0084507
8.25832e-11
0.00845065
9.59091e-09
0.00845027
4.19375e-08
0.00844678
1.17594e-07
0.0084189
5.33071e-06
0.0081864
-6.03768e-05
0.00733903
0.000338499
0.00736045
0.00204195
0.0100298
0.00926473
0.0102119
0.00972776
0.00989102
0.0095661
0.0095799
0.0095387
0.00957845
0.0096928
0.00988311
0.00975452
0.0104605
0.009871
0.00951513
0.0111688
0.0084507
1.35525e-18
0.0084507
2.24972e-17
0.0084507
1.02376e-16
0.0084507
4.32049e-15
0.0084507
1.99017e-14
0.0084507
4.61996e-14
0.0084507
9.03395e-13
0.0084507
3.42566e-12
0.0084507
1.19485e-10
0.0084507
5.05589e-10
0.00845071
1.84914e-09
0.00845036
3.60988e-08
0.00845015
2.09101e-07
0.00843274
2.54255e-06
0.00828253
1.92854e-05
0.00760586
0.000192585
0.00724543
0.00120565
0.00898456
0.00751661
0.0103505
0.0103862
0.0101135
0.00986622
0.0099518
0.00963061
0.00993938
0.00967104
0.0101563
0.00960809
0.0105512
0.00955875
0.00921928
0.0110966
0.0084507
1.46367e-18
0.0084507
4.86807e-17
0.0084507
2.807e-16
0.0084507
1.52005e-15
0.0084507
2.0095e-14
0.0084507
3.2874e-14
0.0084507
1.24384e-12
0.0084507
5.407e-12
0.0084507
3.3337e-11
0.0084507
4.17406e-10
0.0084507
-3.16606e-10
0.00845055
1.40027e-08
0.00845017
6.53058e-08
0.00844107
8.09842e-07
0.00839266
9.46913e-06
0.00799505
2.41083e-05
0.00731597
0.000779998
0.00850259
0.00514173
0.0108913
0.0108747
0.0106762
0.0100891
0.0105939
0.00987072
0.0105124
0.00975789
0.0105905
0.00961007
0.0108016
0.00944041
0.0090146
0.0111757
0.0084507
-7.31836e-19
0.0084507
2.48824e-17
0.0084507
6.17182e-17
0.0084507
2.67554e-16
0.0084507
1.82208e-15
0.0084507
1.39663e-14
0.0084507
4.61154e-13
0.0084507
2.68553e-12
0.0084507
4.38487e-12
0.0084507
1.36794e-10
0.0084507
4.28626e-10
0.00845064
4.76622e-09
0.00845013
6.75008e-08
0.00844572
2.70482e-07
0.00840982
7.07363e-06
0.00813847
-1.65554e-05
0.00738969
0.000498879
0.0081571
0.0030823
0.0112656
0.00986437
0.0114761
0.0106201
0.0112707
0.0103321
0.0110669
0.0100098
0.0110079
0.00971239
0.0110846
0.00942021
0.00895662
0.0112779
0.0084507
8.40257e-18
0.0084507
-1.54228e-17
0.0084507
6.87384e-17
0.0084507
3.12575e-16
0.0084507
5.76305e-15
0.0084507
4.83921e-14
0.0084507
4.57097e-14
0.0084507
2.08576e-12
0.0084507
2.12689e-12
0.0084507
1.26317e-10
0.0084507
1.04654e-09
0.00845071
1.75246e-09
0.00845026
5.12903e-08
0.00844981
2.6671e-07
0.00842739
2.97986e-06
0.00826824
4.0035e-05
0.00782763
-4.98952e-05
0.00802656
0.00171892
0.0103867
0.0079918
0.0118296
0.0112122
0.0116324
0.0107787
0.0114301
0.0101598
0.0113347
0.00979321
0.0113657
0.00942965
0.00894617
0.0114857
0.0084507
7.29126e-18
0.0084507
-1.92175e-17
0.0084507
9.43256e-18
0.0084507
1.5992e-17
0.0084507
3.21648e-15
0.0084507
2.5786e-14
0.0084507
3.01844e-14
0.0084507
8.50906e-13
0.0084507
-2.14933e-12
0.0084507
6.64782e-11
0.0084507
5.98536e-10
0.00845069
7.15591e-10
0.00845059
1.84076e-08
0.00844972
7.97095e-08
0.00844257
1.12178e-06
0.00838558
2.39124e-05
0.00803181
-0.000180707
0.00743853
0.00103513
0.00901042
0.00517156
0.0119084
0.0111098
0.0118277
0.0108908
0.0118265
0.0103442
0.0117243
0.00993344
0.0116966
0.00950184
0.00900485
0.0117308
0.0084507
6.50521e-19
0.0084507
1.24683e-18
0.0084507
3.66189e-17
0.0084507
2.73653e-16
0.0084507
3.71583e-16
0.0084507
1.67929e-14
0.0084507
-3.94622e-15
0.0084507
7.64542e-13
0.0084507
5.11309e-12
0.0084507
7.01182e-12
0.0084507
3.21721e-10
0.0084507
1.0553e-09
0.00845053
1.81498e-08
0.00845059
1.50051e-07
0.00845144
3.91967e-07
0.00841313
6.41473e-06
0.00807504
5.85602e-05
0.00776763
-0.000177133
0.00879903
0.00310805
0.0119726
0.00940744
0.0126353
0.0113738
0.012395
0.0108202
0.0122381
0.0101425
0.0121393
0.00966735
0.00915732
0.0120642
0.0084507
4.87891e-19
0.0084507
1.0842e-18
0.0084507
2.04372e-17
0.0084507
1.56261e-16
0.0084507
2.51806e-16
0.0084507
9.40524e-15
0.0084507
-2.80501e-14
0.0084507
3.46552e-13
0.0084507
2.54441e-12
0.0084507
4.20606e-12
0.0084507
1.39617e-10
0.0084507
3.10851e-10
0.00845069
7.24417e-09
0.00845054
7.82816e-08
0.00844925
9.12325e-08
0.00843906
1.92941e-06
0.00835896
3.27953e-05
0.00795686
-0.000429278
0.00782328
0.00180933
0.00999577
0.00685727
0.0125111
0.0114469
0.0124687
0.0108948
0.0125746
0.010251
0.0125072
0.00984488
0.00933383
0.0124128
0.0084507
-1.35525e-19
0.0084507
5.42101e-20
0.0084507
9.48677e-19
0.0084507
2.99511e-17
0.0084507
1.38886e-16
0.0084507
1.31248e-15
0.0084507
5.6214e-15
0.0084507
8.93158e-14
0.0084507
9.57163e-13
0.0084507
4.65606e-12
0.0084507
1.72726e-11
0.0084507
4.42915e-10
0.0084507
1.65817e-09
0.00845053
2.99369e-08
0.00845067
1.96315e-07
0.00845141
7.32575e-07
0.00840797
9.0289e-06
0.00792953
6.22926e-05
0.00767974
0.000212491
0.00935714
0.00411985
0.012783
0.010136
0.0133149
0.011295
0.0131544
0.0107651
0.0129703
0.0101192
0.00957168
0.0127891
0.0084507
2.43945e-19
0.0084507
8.13152e-19
0.0084507
5.42101e-20
0.0084507
6.80337e-18
0.0084507
3.54263e-17
0.0084507
8.56113e-16
0.0084507
-1.02674e-15
0.0084507
3.4033e-14
0.0084507
3.38846e-13
0.0084507
2.04399e-12
0.0084507
2.33768e-13
0.0084507
2.09308e-10
0.0084507
2.67189e-10
0.00845068
1.17537e-08
0.00845048
9.6503e-08
0.00844889
1.60421e-07
0.00843524
2.73733e-06
0.00833344
3.05001e-05
0.0079873
-0.000244323
0.00844715
0.00210162
0.0113318
0.00752464
0.0135175
0.0115047
0.0134047
0.0111015
0.0133335
0.0103466
0.00983142
0.0131442
0.0084507
-2.43945e-19
0.0084507
1.0842e-18
0.0084507
-2.71051e-20
0.0084507
1.97867e-18
0.0084507
2.41506e-17
0.0084507
2.20012e-16
0.0084507
1.40217e-15
0.0084507
5.3867e-15
0.0084507
1.51336e-13
0.0084507
2.53567e-13
0.0084507
1.10897e-11
0.0084507
4.89076e-11
0.0084507
6.31196e-10
0.0084507
1.80439e-10
0.00845048
4.14974e-08
0.00845075
2.49317e-07
0.00845205
1.1272e-06
0.00839984
1.0915e-05
0.00798676
9.20045e-05
0.00781407
0.000375332
0.00973422
0.00454955
0.0134591
0.0101989
0.0139637
0.0113475
0.0137539
0.0108549
0.010132
0.0134944
0.0084507
-9.21572e-19
0.0084507
8.13152e-20
0.0084507
-3.52366e-19
0.0084507
2.71051e-19
0.0084507
3.63208e-18
0.0084507
9.05038e-17
0.0084507
3.96764e-16
0.0084507
5.01818e-15
0.0084507
6.76714e-14
0.0084507
-6.62187e-14
0.0084507
4.93635e-12
0.0084507
1.96902e-11
0.0084507
2.49255e-10
0.0084507
-1.96006e-09
0.00845068
1.70946e-08
0.00845046
1.17836e-07
0.00844878
2.89089e-07
0.00843459
2.62149e-06
0.00834294
3.81493e-05
0.00805491
-0.000220019
0.00870778
0.00232517
0.0118335
0.00757112
0.0140292
0.0114123
0.0138784
0.0111332
0.0103079
0.0137828
0.0084507
3.25261e-19
0.0084507
8.67362e-19
0.0084507
7.86047e-19
0.0084507
3.79471e-19
0.0084507
2.49366e-18
0.0084507
2.85145e-17
0.0084507
2.26273e-16
0.0084507
2.3538e-15
0.0084507
8.64369e-15
0.0084507
1.52952e-13
0.0084507
5.75843e-13
0.0084507
1.39255e-11
0.0084507
4.06393e-12
0.0084507
6.6306e-10
0.0084507
4.54661e-10
0.00845052
4.7182e-08
0.00845081
2.78704e-07
0.00845195
1.29999e-06
0.00840627
6.79521e-06
0.00804326
9.22601e-05
0.00782139
0.000616674
0.00981138
0.00447605
0.0136636
0.00983099
0.0142609
0.0112416
0.0107647
0.0140319
0.0084507
-4.87891e-19
0.0084507
-6.77626e-19
0.0084507
-2.03288e-18
0.0084507
-2.76472e-18
0.0084507
-2.22261e-18
0.0084507
4.20128e-18
0.0084507
7.74934e-17
0.0084507
8.42317e-16
0.0084507
1.69903e-15
0.0084507
6.29513e-14
0.0084507
1.73043e-13
0.0084507
6.44298e-12
0.0084507
-2.21032e-11
0.0084507
2.53203e-10
0.0084507
-2.10888e-09
0.00845068
1.97781e-08
0.00845049
9.06947e-08
0.00844904
3.77991e-07
0.00843625
-2.81702e-06
0.00836652
3.00932e-05
0.0081297
-6.81521e-05
0.00885555
0.00220922
0.0119132
0.0071806
0.0142786
0.0111028
0.0108842
0.0141708
0.0084507
-1.35525e-19
0.0084507
-3.79471e-19
0.0084507
-1.11131e-18
0.0084507
-1.54499e-18
0.0084507
-1.76183e-18
0.0084507
9.48677e-19
0.0084507
3.01137e-17
0.0084507
1.71467e-16
0.0084507
1.71702e-15
0.0084507
1.97365e-14
0.0084507
7.12595e-14
0.0084507
1.32918e-12
0.0084507
5.06468e-12
0.0084507
6.85874e-11
0.0084507
5.56147e-10
0.0084507
4.08299e-09
0.00845068
-3.41406e-09
0.00845094
2.25051e-07
0.00844694
1.09711e-06
0.00840743
2.19367e-06
0.00814025
9.47026e-05
0.00781169
0.000778959
0.00981492
0.00403124
0.0137852
0.00911727
0.0109445
0.0146463
0.0084507
1.6263e-19
0.0084507
-8.13152e-20
0.0084507
1.6263e-19
0.0084507
8.13152e-19
0.0084507
1.13841e-18
0.0084507
5.69206e-19
0.0084507
8.51099e-18
0.0084507
1.12757e-16
0.0084507
7.24193e-16
0.0084507
9.93476e-15
0.0084507
9.62397e-15
0.0084507
6.18715e-13
0.0084507
4.54602e-12
0.0084507
3.64962e-11
0.0084507
1.18365e-10
0.0084507
9.32133e-10
0.00845069
9.07483e-09
0.00845048
7.87709e-08
0.00844982
1.45887e-07
0.00843932
-6.87862e-06
0.00839572
2.71634e-05
0.00821431
8.61292e-05
0.00879553
0.00193789
0.0116107
0.00639723
0.0103627
0.0144928
0.0084507
-2.43945e-19
0.0084507
-6.23416e-19
0.0084507
9.62965e-35
0.0084507
2.43945e-19
0.0084507
1.0842e-18
0.0084507
-1.11131e-18
0.0084507
4.3097e-18
0.0084507
3.586e-17
0.0084507
3.87792e-16
0.0084507
3.16378e-15
0.0084507
8.91171e-15
0.0084507
2.19672e-13
0.0084507
1.61005e-12
0.0084507
1.08468e-11
0.0084507
2.23677e-11
0.0084507
-1.13246e-10
0.00845071
1.19781e-09
0.00845077
1.31419e-08
0.00845079
1.29362e-07
0.00844324
6.63887e-07
0.00841208
8.34105e-06
0.0082569
8.37975e-05
0.00782793
0.000873913
0.00958534
0.00337418
0.00784988
0.0135515
0.0084507
-6.50521e-19
0.0084507
-4.60786e-19
0.0084507
-1.13841e-18
0.0084507
-1.84314e-18
0.0084507
-1.49078e-18
0.0084507
-2.35814e-18
0.0084507
-2.52077e-18
0.0084507
1.12215e-17
0.0084507
1.27746e-16
0.0084507
5.92354e-16
0.0084507
9.32284e-15
0.0084507
7.76003e-14
0.0084507
1.74077e-13
0.0084507
1.57049e-12
0.0084507
9.32502e-12
0.0084507
7.54445e-11
0.0084507
6.95909e-10
0.00845068
1.63244e-09
0.00845051
5.30133e-08
0.00844935
-2.10966e-08
0.00844038
1.20418e-06
0.00841084
5.65228e-06
0.00828455
0.000228984
0.00929553
0.00059347
0.00550522
0.0116689
0.0084507
-4.87891e-19
0.0084507
4.33681e-19
0.0084507
-1.89735e-19
0.0084507
-6.77626e-19
0.0084507
-3.25261e-19
0.0084507
-1.27394e-18
0.0084507
-1.76183e-18
0.0084507
5.28549e-18
0.0084507
3.14148e-17
0.0084507
-2.27954e-17
0.0084507
2.12512e-15
0.0084507
2.43462e-14
0.0084507
7.47151e-14
0.0084507
8.65237e-13
0.0084507
4.33555e-12
0.0084507
1.63875e-11
0.0084507
2.75348e-10
0.0084507
2.07678e-09
0.00845068
1.80477e-08
0.00845031
8.9378e-08
0.00844808
1.08553e-06
0.00843678
-9.09055e-06
0.00841336
8.59173e-05
0.00826377
-0.000358079
0.00293477
0.00958358
0.0084507
-1.0842e-19
0.0084507
3.79471e-19
0.0084507
9.48677e-19
0.0084507
7.04731e-19
0.0084507
1.13841e-18
0.0084507
1.65341e-18
0.0084507
1.81604e-18
0.0084507
3.25261e-18
0.0084507
9.40545e-18
0.0084507
7.29397e-17
0.0084507
6.81231e-16
0.0084507
4.54137e-15
0.0084507
3.25308e-14
0.0084507
2.07368e-13
0.0084507
2.03565e-12
0.0084507
4.05536e-12
0.0084507
8.70887e-11
0.0084507
4.14291e-10
0.0084507
5.27404e-09
0.00845064
3.30123e-08
0.00845035
4.95613e-09
0.00843179
2.43389e-06
0.00850874
1.8032e-05
0.0080609
8.95129e-05
0.000976091
0.00790071
0.0084507
4.60786e-19
0.0084507
2.1684e-19
0.0084507
2.98156e-19
0.0084507
9.21572e-19
0.0084507
1.38236e-18
0.0084507
2.03288e-18
0.0084507
2.60209e-18
0.0084507
2.71051e-18
0.0084507
5.77338e-18
0.0084507
1.67509e-17
0.0084507
2.3042e-16
0.0084507
7.62194e-16
0.0084507
9.10413e-15
0.0084507
2.56326e-14
0.0084507
6.65721e-13
0.0084507
2.48818e-12
0.0084507
1.63087e-11
0.0084507
2.11376e-10
0.00845071
1.59939e-09
0.0084507
1.11017e-08
0.0084504
1.22103e-08
0.00845071
3.78673e-07
0.00844104
6.62131e-06
0.00842577
1.66806e-05
0.000160063
0.00835493
0.0084507
1.0842e-19
0.0084507
4.06576e-19
0.0084507
-3.52366e-19
0.0084507
7.31836e-19
0.0084507
2.71051e-19
0.0084507
8.67362e-19
0.0084507
1.21973e-18
0.0084507
1.84314e-18
0.0084507
2.87314e-18
0.0084507
5.39391e-18
0.0084507
7.82252e-17
0.0084507
3.04769e-16
0.0084507
1.32067e-15
0.0084507
1.99908e-14
0.0084507
2.18515e-13
0.0084507
7.01858e-13
0.0084507
-3.51397e-12
0.0084507
6.30569e-11
0.0084507
1.98286e-10
0.0084507
2.16031e-09
0.00845065
2.33717e-08
0.00845056
-1.92342e-07
0.00845285
1.25807e-06
0.00843079
1.00883e-05
7.40759e-05
0.00841131
0.0084507
-2.43945e-19
0.0084507
2.43945e-19
0.0084507
-3.79471e-19
0.0084507
8.67362e-19
0.0084507
5.42101e-19
0.0084507
8.67362e-19
0.0084507
6.50521e-19
0.0084507
1.00289e-18
0.0084507
1.54499e-18
0.0084507
7.86047e-19
0.0084507
2.1684e-17
0.0084507
1.06767e-16
0.0084507
-2.11257e-16
0.0084507
9.67065e-15
0.0084507
7.96342e-14
0.0084507
1.74914e-13
0.0084507
2.90324e-12
0.0084507
1.84576e-11
0.0084507
8.9499e-11
0.0084507
1.00076e-09
0.00845072
9.06761e-09
0.00845046
3.95946e-08
0.00845008
1.31045e-07
0.0084487
2.03425e-06
1.14778e-05
0.00846394
0.0084507
4.06576e-19
0.0084507
7.86047e-19
0.0084507
9.48677e-19
0.0084507
2.71051e-20
0.0084507
2.1684e-19
0.0084507
-6.50521e-19
0.0084507
-1.21973e-18
0.0084507
-1.43657e-18
0.0084507
-1.92446e-18
0.0084507
-3.57787e-18
0.0084507
-1.11131e-18
0.0084507
2.60751e-17
0.0084507
2.72514e-16
0.0084507
1.30351e-15
0.0084507
1.96945e-14
0.0084507
7.14707e-14
0.0084507
1.04984e-12
0.0084507
4.559e-12
0.0084507
5.49484e-11
0.0084507
3.44416e-10
0.0084507
4.46216e-09
0.00845074
6.02848e-09
0.00845058
5.14942e-08
0.00845003
2.17257e-07
6.07535e-06
0.0084414
0.0084507
1.89735e-19
0.0084507
1.0842e-19
0.0084507
6.23416e-19
0.0084507
-8.13152e-19
0.0084507
-4.06576e-19
0.0084507
-1.27394e-18
0.0084507
-1.68051e-18
0.0084507
-1.68051e-18
0.0084507
-1.65341e-18
0.0084507
-1.78893e-18
0.0084507
-1.00289e-18
0.0084507
9.35124e-18
0.0084507
5.72188e-17
0.0084507
-3.42608e-17
0.0084507
5.51306e-15
0.0084507
1.66168e-14
0.0084507
2.53126e-13
0.0084507
9.64152e-13
0.0084507
1.5489e-11
0.0084507
7.37978e-11
0.00845071
7.35274e-10
0.0084507
4.15844e-09
0.00845066
4.09513e-09
0.00845049
9.42019e-08
1.66104e-06
0.00845041
0.0084507
-2.43945e-19
0.0084507
-7.86047e-19
0.0084507
-3.52366e-19
0.0084507
2.71051e-20
0.0084507
3.79471e-19
0.0084507
3.79471e-19
0.0084507
6.50521e-19
0.0084507
4.06576e-19
0.0084507
4.33681e-19
0.0084507
6.77626e-19
0.0084507
4.33681e-19
0.0084507
2.1413e-18
0.0084507
2.07354e-17
0.0084507
9.92858e-17
0.0084507
1.38171e-15
0.0084507
2.16659e-15
0.0084507
6.83155e-14
0.0084507
5.42187e-14
0.0084507
4.05354e-12
0.0084507
2.74507e-11
0.0084507
2.07304e-10
0.0084507
9.16941e-10
0.00845069
6.3011e-09
0.00845061
4.89168e-08
2.95551e-07
0.00845063
0.0084507
4.60786e-19
0.0084507
4.06576e-19
0.0084507
6.50521e-19
0.0084507
8.67362e-19
0.0084507
8.94467e-19
0.0084507
6.23416e-19
0.0084507
1.0571e-18
0.0084507
1.00289e-18
0.0084507
8.40257e-19
0.0084507
8.67362e-19
0.0084507
4.60786e-19
0.0084507
-1.02999e-18
0.0084507
4.8518e-18
0.0084507
4.25007e-17
0.0084507
2.98535e-16
0.0084507
-4.47984e-15
0.0084507
2.48691e-14
0.0084507
-6.42337e-14
0.0084507
8.62743e-13
0.0084507
8.63132e-12
0.0084507
2.93145e-11
0.0084507
1.3073e-10
0.0084507
8.45653e-10
0.00845072
1.18834e-08
9.25976e-08
0.00845057
0.0084507
1.0842e-19
0.0084507
-1.0842e-19
0.0084507
-5.14996e-19
0.0084507
-1.32815e-18
0.0084507
-9.75782e-19
0.0084507
-8.94467e-19
0.0084507
-4.60786e-19
0.0084507
-1.6263e-19
0.0084507
-3.79471e-19
0.0084507
1.35525e-19
0.0084507
1.89735e-19
0.0084507
-2.43945e-19
0.0084507
8.94467e-19
0.0084507
1.06523e-17
0.0084507
5.53756e-17
0.0084507
5.28657e-16
0.0084507
5.52783e-15
0.0084507
5.86632e-15
0.0084507
2.20425e-13
0.0084507
2.21074e-12
0.0084507
9.70916e-12
0.0084507
7.43489e-11
0.0084507
-2.92776e-10
0.0084507
3.40651e-09
1.40548e-08
0.00845069
0.0084507
-4.06576e-19
0.0084507
-9.75782e-19
0.0084507
-8.40257e-19
0.0084507
-1.32815e-18
0.0084507
-1.43657e-18
0.0084507
-1.38236e-18
0.0084507
-1.30104e-18
0.0084507
-2.19551e-18
0.0084507
-2.52077e-18
0.0084507
-2.1684e-18
0.0084507
-2.43945e-18
0.0084507
-2.30393e-18
0.0084507
-2.54788e-18
0.0084507
-1.89735e-19
0.0084507
6.69495e-18
0.0084507
1.54797e-16
0.0084507
1.32587e-15
0.0084507
3.4228e-15
0.0084507
6.25906e-14
0.0084507
4.98069e-13
0.0084507
2.21543e-12
0.0084507
8.74819e-12
0.0084507
6.91857e-11
0.0084507
5.09546e-10
4.00669e-09
0.0084507
0.0084507
-1.35525e-19
0.0084507
-2.71051e-19
0.0084507
-1.6263e-19
0.0084507
-2.71051e-20
0.0084507
1.0842e-19
0.0084507
-3.79471e-19
0.0084507
-1.89735e-19
0.0084507
-1.02999e-18
0.0084507
-1.16552e-18
0.0084507
-1.81604e-18
0.0084507
-2.03288e-18
0.0084507
-2.1413e-18
0.0084507
-2.54788e-18
0.0084507
-1.68051e-18
0.0084507
-2.87314e-18
0.0084507
4.57804e-17
0.0084507
2.32995e-16
0.0084507
1.95021e-16
0.0084507
1.77284e-14
0.0084507
7.81135e-14
0.0084507
7.61725e-13
0.0084507
3.78729e-12
0.0084507
-2.80841e-11
0.0084507
1.74744e-10
-8.41109e-10
0.0084507
0.0084507
2.43945e-19
0.0084507
1.89735e-19
0.0084507
1.6263e-19
0.0084507
1.35525e-19
0.0084507
1.89735e-19
0.0084507
-5.96311e-19
0.0084507
-9.48677e-19
0.0084507
-1.24683e-18
0.0084507
-1.5992e-18
0.0084507
-1.97867e-18
0.0084507
-2.03288e-18
0.0084507
-2.22261e-18
0.0084507
-2.24972e-18
0.0084507
-1.78893e-18
0.0084507
-4.25549e-18
0.0084507
1.00289e-17
0.0084507
7.2506e-17
0.0084507
7.21293e-16
0.0084507
4.73718e-15
0.0084507
2.2971e-14
0.0084507
2.00276e-13
0.0084507
7.99863e-13
0.0084507
4.0499e-12
0.0084507
2.5892e-11
2.33396e-10
0.0084507
0.0084507
1.89735e-19
0.0084507
5.96311e-19
0.0084507
5.42101e-19
0.0084507
5.42101e-19
0.0084507
7.31836e-19
0.0084507
2.71051e-19
0.0084507
-3.79471e-19
0.0084507
-5.69206e-19
0.0084507
-7.86047e-19
0.0084507
-8.94467e-19
0.0084507
-1.11131e-18
0.0084507
-1.78893e-18
0.0084507
-1.78893e-18
0.0084507
-2.81893e-18
0.0084507
-2.6834e-18
0.0084507
5.69206e-19
0.0084507
1.40946e-17
0.0084507
2.01309e-16
0.0084507
1.27009e-15
0.0084507
-4.84338e-15
0.0084507
4.28891e-14
0.0084507
4.00901e-13
0.0084507
-1.41668e-12
0.0084507
1.80882e-11
1.94827e-11
0.0084507
0.0084507
7.52316e-36
0.0084507
2.43945e-19
0.0084507
1.89735e-19
0.0084507
5.42101e-20
0.0084507
1.0842e-19
0.0084507
2.71051e-20
0.0084507
5.42101e-19
0.0084507
8.40257e-19
0.0084507
7.58942e-19
0.0084507
-1.0842e-19
0.0084507
-4.33681e-19
0.0084507
-1.68051e-18
0.0084507
-2.00577e-18
0.0084507
-3.00866e-18
0.0084507
-2.84603e-18
0.0084507
-2.49366e-18
0.0084507
-1.73472e-18
0.0084507
5.93059e-17
0.0084507
-3.72966e-17
0.0084507
2.01155e-15
0.0084507
-2.65412e-14
0.0084507
-2.17293e-13
0.0084507
-1.91877e-12
0.0084507
1.04742e-11
-1.53999e-11
0.0084507
0.0084507
-3.52366e-19
0.0084507
-7.58942e-19
0.0084507
-1.68051e-18
0.0084507
-2.03288e-18
0.0084507
-2.41235e-18
0.0084507
-2.62919e-18
0.0084507
-2.11419e-18
0.0084507
-2.24972e-18
0.0084507
-1.92446e-18
0.0084507
-1.6263e-18
0.0084507
-1.0842e-18
0.0084507
-1.19262e-18
0.0084507
-5.96311e-19
0.0084507
-4.60786e-19
0.0084507
-1.35525e-18
0.0084507
-1.13841e-18
0.0084507
-3.25261e-19
0.0084507
-3.13334e-17
0.0084507
1.51138e-16
0.0084507
-6.62876e-15
0.0084507
-7.82509e-15
0.0084507
1.01993e-13
0.0084507
-2.85713e-13
0.0084507
2.79999e-12
-4.56061e-12
0.0084507
0.0084507
0.0084507
0.0084507
0.0084507
0.0084507
0.0084507
0.0084507
0.0084507
0.0084507
0.0084507
0.0084507
0.0084507
0.0084507
0.0084507
0.0084507
0.0084507
0.0084507
0.0084507
0.0084507
0.0084507
0.0084507
0.0084507
0.0084507
0.0084507
0.0084507
0.00300339
0.00465381
-0.000153743
0.00315769
-0.00167596
0.00152285
-0.00193575
0.000259762
-0.00192182
-1.18934e-05
-0.00195759
9.51761e-05
-0.00246574
0.000589263
-0.00301997
0.000482748
-0.00338459
0.000303856
-0.00354375
0.000159542
-0.00358118
3.75991e-05
-0.00356709
-1.09275e-05
-0.00355162
1.59559e-06
-0.00350786
1.39373e-05
-0.00350377
-6.63807e-07
-0.00358146
3.00679e-05
-0.00365618
4.8974e-05
-0.00370321
4.28592e-05
-0.00370775
4.39966e-06
-0.00370672
2.47765e-06
-0.00370175
-4.70117e-06
-0.00369651
-2.41786e-06
-0.00369347
-3.81021e-07
-0.00369351
2.19534e-07
-0.00368337
-5.69168e-06
-0.00368753
2.01254e-06
-0.00369179
-3.69996e-07
-0.00369729
5.67932e-06
-0.00370068
3.21753e-06
-0.00371675
3.75775e-06
-0.00372094
-3.11894e-06
-0.00374032
-2.32459e-06
-0.00376018
-8.05706e-06
-0.00375124
-1.98185e-05
-0.00371219
-3.68481e-05
-0.00366741
-5.0585e-05
-0.00358951
-7.568e-05
-0.00345832
-0.000114381
-0.00330704
-0.000138792
-0.00315571
-0.000148698
-0.00290775
-0.000228369
-0.00265428
-0.00024215
-0.00238581
-0.000254799
-0.00208451
-0.000284621
-0.00179889
-0.000277047
-0.00146549
-0.000328539
-0.00104793
-0.000402324
-0.000623557
-0.000411659
-0.000190101
-0.000424017
0.000239073
-0.00042742
0.000637676
-0.00039774
0.00101359
-0.000371764
0.00137261
-0.000356208
0.00171044
-0.000334604
0.00202656
-0.000314132
0.00231961
-0.000290301
0.00259105
-0.000268303
0.00284187
-0.000247315
0.00307196
-0.000226718
0.00328297
-0.000208201
0.00347639
-0.000191461
0.00365375
-0.000175976
0.00381773
-0.000162283
0.00396935
-0.000149135
0.00410975
-0.000137491
0.00424025
-0.000126667
0.00436036
-0.000115851
0.00446941
-0.000105297
0.00456971
-9.63497e-05
0.00466305
-8.89117e-05
0.00474984
-8.26382e-05
0.00482979
-7.6596e-05
0.00490435
-7.15462e-05
0.00497377