/*--------------------------------*- C++ -*----------------------------------*\
| =========                 |                                                 |
| \\      /  F ield         | OpenFOAM: The Open Source CFD Toolbox           |
|  \\    /   O peration     | Version:  v2106                                 |
|   \\  /    A nd           | Website:  www.openfoam.com                      |
|    \\/     M anipulation  |                                                 |
\*---------------------------------------------------------------------------*/
FoamFile
{
    version     2.0;
    format      ascii;
    arch        "LSB;label=32;scalar=64";
    class       volScalarField;
    location    "10";
    object      psi;
}
// * * * * * * * * * * * * * * * * * * * * * * * * * * * * * * * * * * * * * //

dimensions      [0 -2 2 0 0 0 0];

internalField   nonuniform List<scalar> 
5250
(
1.40845
1.40845
1.40845
1.40845
1.40845
1.40845
1.40845
1.40845
1.40844
1.40831
1.40722
1.39767
1.32437
1.04734
0.679678
0.489511
0.587604
0.608329
0.597254
0.598367
0.59727
0.594881
0.594105
0.594651
0.596067
1.40845
1.40845
1.40845
1.40845
1.40845
1.40845
1.40845
1.40845
1.40844
1.40832
1.40726
1.39801
1.32649
1.05223
0.684047
0.487584
0.590221
0.611066
0.599672
0.60021
0.5989
0.596357
0.59522
0.595664
0.596922
1.40845
1.40845
1.40845
1.40845
1.40845
1.40845
1.40845
1.40845
1.40844
1.40833
1.40734
1.39872
1.33117
1.06333
0.69389
0.481297
0.594504
0.616256
0.603944
0.604077
0.602365
0.59928
0.597801
0.598106
0.599233
1.40845
1.40845
1.40845
1.40845
1.40845
1.40845
1.40845
1.40845
1.40844
1.40833
1.40743
1.39967
1.33774
1.0798
0.709146
0.466557
0.594615
0.619923
0.60846
0.609276
0.607286
0.603434
0.601122
0.601099
0.601895
1.40845
1.40845
1.40845
1.40845
1.40845
1.40845
1.40845
1.40845
1.40844
1.40835
1.40756
1.40081
1.34613
1.1028
0.729773
0.46047
0.585416
0.616138
0.607245
0.610759
0.610696
0.608919
0.605808
0.604952
0.60542
1.40845
1.40845
1.40845
1.40845
1.40845
1.40845
1.40845
1.40845
1.40844
1.40838
1.40774
1.40233
1.35533
1.13012
0.754993
0.455811
0.571991
0.607534
0.602217
0.607795
0.610614
0.611208
0.610404
0.609731
0.610307
1.40845
1.40845
1.40845
1.40845
1.40845
1.40845
1.40845
1.40845
1.40844
1.40839
1.40792
1.40368
1.3648
1.16217
0.787968
0.447926
0.551989
0.593653
0.593448
0.602207
0.609127
0.615146
0.616261
0.61548
0.616866
1.40845
1.40845
1.40845
1.40845
1.40845
1.40845
1.40845
1.40845
1.40845
1.4084
1.408
1.40437
1.37192
1.18938
0.823703
0.452737
0.545748
0.579297
0.582763
0.593814
0.605661
0.614969
0.622322
0.62317
0.627478
1.40845
1.40845
1.40845
1.40845
1.40845
1.40845
1.40845
1.40845
1.40845
1.40841
1.40809
1.40525
1.37948
1.22153
0.86503
0.467842
0.549833
0.567037
0.570462
0.581372
0.598846
0.614644
0.630691
0.632534
0.64568
1.40845
1.40845
1.40845
1.40845
1.40845
1.40845
1.40845
1.40845
1.40845
1.40842
1.40816
1.40588
1.38467
1.2478
0.912103
0.492872
0.565659
0.566116
0.568821
0.575767
0.589349
0.60927
0.634954
0.64454
0.6894
1.40845
1.40845
1.40845
1.40845
1.40845
1.40845
1.40845
1.40845
1.40845
1.40843
1.40824
1.40655
1.39123
1.2855
0.96625
0.520659
0.558363
0.578642
0.578002
0.578135
0.586917
0.60702
0.641254
0.682683
0.789942
1.40845
1.40845
1.40845
1.40845
1.40845
1.40845
1.40845
1.40845
1.40845
1.40844
1.40832
1.40725
1.39794
1.32349
1.02607
0.558387
0.544928
0.594454
0.593382
0.586543
0.58905
0.603604
0.635384
0.677186
0.827463
1.40845
1.40845
1.40845
1.40845
1.40845
1.40845
1.40845
1.40845
1.40845
1.40844
1.40836
1.40761
1.40127
1.34874
1.10949
0.721619
0.522322
0.623763
0.615579
0.60047
0.596616
0.605585
0.632661
0.669091
0.809985
1.40845
1.40845
1.40845
1.40845
1.40845
1.40845
1.40845
1.40845
1.40845
1.40844
1.4084
1.40796
1.40408
1.36868
1.17561
0.803753
0.489821
0.620747
0.62987
0.618691
0.607832
0.613238
0.634334
0.666152
0.774419
1.40845
1.40845
1.40845
1.40845
1.40845
1.40845
1.40845
1.40845
1.40845
1.40845
1.40841
1.4081
1.40542
1.3812
1.23179
0.888047
0.488789
0.614386
0.628578
0.633209
0.624524
0.625595
0.63877
0.663652
0.732267
1.40845
1.40845
1.40845
1.40845
1.40845
1.40845
1.40845
1.40845
1.40845
1.40845
1.40843
1.40823
1.40658
1.39199
1.29326
0.977697
0.512068
0.575216
0.638171
0.658154
0.651466
0.642132
0.647744
0.6657
0.710383
1.40845
1.40845
1.40845
1.40845
1.40845
1.40845
1.40845
1.40845
1.40845
1.40845
1.40844
1.40837
1.40766
1.40155
1.34936
1.08218
0.601487
0.532363
0.629954
0.658717
0.657763
0.654555
0.658988
0.671579
0.703694
1.40845
1.40845
1.40845
1.40845
1.40845
1.40845
1.40845
1.40845
1.40845
1.40845
1.40844
1.40839
1.40793
1.40396
1.36979
1.18046
0.806038
0.496637
0.623996
0.643411
0.664733
0.665828
0.671222
0.681542
0.7051
1.40845
1.40845
1.40845
1.40845
1.40845
1.40845
1.40845
1.40845
1.40845
1.40845
1.40845
1.40842
1.40816
1.40595
1.38698
1.26543
0.927295
0.505782
0.597638
0.640672
0.672587
0.678984
0.685742
0.694732
0.711599
1.40845
1.40845
1.40845
1.40845
1.40845
1.40845
1.40845
1.40845
1.40845
1.40845
1.40845
1.40844
1.40834
1.40735
1.39888
1.32961
1.03589
0.556819
0.56138
0.642744
0.68178
0.685828
0.691368
0.700922
0.717325
1.40845
1.40845
1.40845
1.40845
1.40845
1.40845
1.40845
1.40845
1.40845
1.40845
1.40845
1.40844
1.40838
1.40788
1.40371
1.37055
1.19477
0.787957
0.511705
0.637533
0.661274
0.688037
0.696389
0.706381
0.721527
1.40845
1.40845
1.40845
1.40845
1.40845
1.40845
1.40845
1.40845
1.40845
1.40845
1.40845
1.40844
1.40836
1.40839
1.40654
1.39356
1.29616
0.927141
0.536536
0.597129
0.664926
0.693546
0.703184
0.713881
0.727224
1.40845
1.40845
1.40845
1.40845
1.40845
1.40845
1.40845
1.40845
1.40845
1.40845
1.40845
1.40845
1.40844
1.40834
1.40755
1.4012
1.35314
1.1306
0.651631
0.54213
0.659627
0.678536
0.701703
0.716585
0.731931
1.40845
1.40845
1.40845
1.40845
1.40845
1.40845
1.40845
1.40845
1.40845
1.40845
1.40845
1.40845
1.40844
1.40834
1.40836
1.40629
1.3947
1.28967
0.845682
0.525055
0.623464
0.674832
0.706444
0.720107
0.734485
1.40845
1.40845
1.40845
1.40845
1.40845
1.40845
1.40845
1.40845
1.40845
1.40845
1.40845
1.40845
1.40845
1.40843
1.4083
1.40723
1.39883
1.33662
1.07765
0.566286
0.572494
0.670645
0.699911
0.719959
0.735175
1.40845
1.40845
1.40845
1.40845
1.40845
1.40845
1.40845
1.40845
1.40845
1.40845
1.40845
1.40845
1.40845
1.40844
1.40831
1.40832
1.406
1.38938
1.26437
0.788005
0.521427
0.635664
0.685228
0.720521
0.73489
1.40845
1.40845
1.40845
1.40845
1.40845
1.40845
1.40845
1.40845
1.40845
1.40845
1.40845
1.40845
1.40845
1.40845
1.40843
1.40828
1.40706
1.39768
1.32995
1.06059
0.564745
0.583834
0.68283
0.712104
0.731376
1.40845
1.40845
1.40845
1.40845
1.40845
1.40845
1.40845
1.40845
1.40845
1.40845
1.40845
1.40845
1.40845
1.40845
1.40844
1.40832
1.40838
1.4059
1.38929
1.2715
0.790685
0.528457
0.642546
0.697048
0.72991
1.40845
1.40845
1.40845
1.40845
1.40845
1.40845
1.40845
1.40845
1.40845
1.40845
1.40845
1.40845
1.40845
1.40845
1.40845
1.40843
1.40828
1.40708
1.39823
1.33339
1.0625
0.574663
0.589028
0.690674
0.712893
1.40845
1.40845
1.40845
1.40845
1.40845
1.40845
1.40845
1.40845
1.40845
1.40845
1.40845
1.40845
1.40845
1.40845
1.40845
1.40844
1.40838
1.40853
1.40646
1.39046
1.27704
0.821244
0.539943
0.641421
0.703641
1.40845
1.40845
1.40845
1.40845
1.40845
1.40845
1.40845
1.40845
1.40845
1.40845
1.40845
1.40845
1.40845
1.40845
1.40845
1.40845
1.40844
1.40832
1.40736
1.3999
1.34372
1.08786
0.602869
0.585115
0.687024
1.40845
1.40845
1.40845
1.40845
1.40845
1.40845
1.40845
1.40845
1.40845
1.40845
1.40845
1.40845
1.40845
1.40845
1.40845
1.40845
1.40845
1.40845
1.40861
1.40714
1.39268
1.28554
0.880795
0.555914
0.622069
1.40845
1.40845
1.40845
1.40845
1.40845
1.40845
1.40845
1.40845
1.40845
1.40845
1.40845
1.40845
1.40845
1.40845
1.40845
1.40845
1.40845
1.40844
1.40833
1.40744
1.40074
1.35098
1.10754
0.633052
0.569838
1.40845
1.40845
1.40845
1.40845
1.40845
1.40845
1.40845
1.40845
1.40845
1.40845
1.40845
1.40845
1.40845
1.40845
1.40845
1.40845
1.40845
1.40845
1.40843
1.4083
1.40698
1.39674
1.31397
1.01699
0.613312
1.40845
1.40845
1.40845
1.40845
1.40845
1.40845
1.40845
1.40845
1.40845
1.40845
1.40845
1.40845
1.40845
1.40845
1.40845
1.40845
1.40845
1.40845
1.40844
1.40837
1.40787
1.40213
1.40405
1.31022
0.815705
1.40845
1.40845
1.40845
1.40845
1.40845
1.40845
1.40845
1.40845
1.40845
1.40845
1.40845
1.40845
1.40845
1.40845
1.40845
1.40845
1.40845
1.40845
1.40845
1.40844
1.40835
1.40734
1.40032
1.34928
1.09725
1.40845
1.40845
1.40845
1.40845
1.40845
1.40845
1.40845
1.40845
1.40845
1.40845
1.40845
1.40845
1.40845
1.40845
1.40845
1.40845
1.40845
1.40845
1.40845
1.40845
1.40841
1.40817
1.40657
1.39761
1.3107
1.40845
1.40845
1.40845
1.40845
1.40845
1.40845
1.40845
1.40845
1.40845
1.40845
1.40845
1.40845
1.40845
1.40845
1.40845
1.40845
1.40845
1.40845
1.40845
1.40845
1.40845
1.4084
1.40786
1.40434
1.38097
1.40845
1.40845
1.40845
1.40845
1.40845
1.40845
1.40845
1.40845
1.40845
1.40845
1.40845
1.40845
1.40845
1.40845
1.40845
1.40845
1.40845
1.40845
1.40845
1.40845
1.40845
1.40845
1.40835
1.40736
1.40115
1.40845
1.40845
1.40845
1.40845
1.40845
1.40845
1.40845
1.40845
1.40845
1.40845
1.40845
1.40845
1.40845
1.40845
1.40845
1.40845
1.40845
1.40845
1.40845
1.40845
1.40845
1.40845
1.40841
1.40814
1.40633
1.40845
1.40845
1.40845
1.40845
1.40845
1.40845
1.40845
1.40845
1.40845
1.40845
1.40845
1.40845
1.40845
1.40845
1.40845
1.40845
1.40845
1.40845
1.40845
1.40845
1.40845
1.40845
1.40844
1.40838
1.40789
1.40845
1.40845
1.40845
1.40845
1.40845
1.40845
1.40845
1.40845
1.40845
1.40845
1.40845
1.40845
1.40845
1.40845
1.40845
1.40845
1.40845
1.40845
1.40845
1.40845
1.40845
1.40845
1.40845
1.40843
1.40832
1.40845
1.40845
1.40845
1.40845
1.40845
1.40845
1.40845
1.40845
1.40845
1.40845
1.40845
1.40845
1.40845
1.40845
1.40845
1.40845
1.40845
1.40845
1.40845
1.40845
1.40845
1.40845
1.40845
1.40845
1.40841
1.40845
1.40845
1.40845
1.40845
1.40845
1.40845
1.40845
1.40845
1.40845
1.40845
1.40845
1.40845
1.40845
1.40845
1.40845
1.40845
1.40845
1.40845
1.40845
1.40845
1.40845
1.40845
1.40845
1.40845
1.40844
1.40845
1.40845
1.40845
1.40845
1.40845
1.40845
1.40845
1.40845
1.40845
1.40845
1.40845
1.40845
1.40845
1.40845
1.40845
1.40845
1.40845
1.40845
1.40845
1.40845
1.40845
1.40845
1.40845
1.40845
1.40845
1.40845
1.40845
1.40845
1.40845
1.40845
1.40845
1.40845
1.40845
1.40845
1.40845
1.40845
1.40845
1.40845
1.40845
1.40845
1.40845
1.40845
1.40845
1.40845
1.40845
1.40845
1.40845
1.40845
1.40845
1.40845
1.40845
1.40845
1.40845
1.40845
1.40845
1.40845
1.40845
1.40845
1.40845
1.40845
1.40845
1.40845
1.40845
1.40845
1.40845
1.40845
1.40845
1.40845
1.40845
1.40845
1.40845
1.40845
1.40845
1.40845
1.40845
1.40845
1.40845
1.40845
1.40845
1.40845
1.40845
1.40845
1.40845
1.40845
1.40845
1.40845
1.40845
1.40845
1.40845
1.40845
1.40845
1.40845
1.40845
1.40845
1.40845
1.40845
1.40845
1.40845
1.40845
1.40845
1.40845
1.40845
1.40845
1.40845
1.40845
1.40845
1.40845
1.40845
1.40845
1.40845
1.40845
1.40845
1.40845
1.40845
1.40845
1.40845
1.40845
1.40845
1.40845
1.40845
1.40845
1.40845
1.40845
1.40845
1.40845
1.40845
1.40845
1.40845
1.40845
1.40845
1.40845
1.40845
1.40845
1.40845
1.40845
1.40845
1.40845
1.40845
1.40845
1.40845
1.40845
1.40845
1.40845
1.40845
1.40845
1.40845
1.40845
1.40845
1.40845
1.40845
0.710458
0.62921
0.519752
0.527732
0.532019
0.522614
0.514875
0.513895
0.553151
0.569291
0.5715
0.570691
0.569918
0.566931
0.563379
0.578088
0.591723
0.598397
0.599628
0.59895
0.598137
0.597903
0.597725
0.597826
0.598566
0.598922
0.601015
0.602395
0.602915
0.6032
0.604548
0.604256
0.604836
0.603398
0.595264
0.58797
0.581269
0.571395
0.562381
0.554831
0.54803
0.537938
0.530896
0.524207
0.518787
0.516249
0.514704
0.510943
0.509321
0.505728
0.506369
0.507932
0.509791
0.512042
0.513944
0.51624
0.518724
0.521344
0.524009
0.526569
0.529101
0.531561
0.533988
0.536479
0.538898
0.541329
0.543801
0.546159
0.548414
0.550692
0.552989
0.555219
0.557416
0.559622
0.561825
0.563842
0.565853
0.567716
0.5696
0.571395
0.573219
0.574984
0.576773
0.578514
0.58027
0.581996
0.583751
0.585488
0.587284
0.589081
0.590924
0.59278
0.594667
0.5966
0.598555
0.600622
0.60273
0.606135
0.606349
0.604715
0.694221
0.641212
0.592937
0.544573
0.529852
0.516515
0.497264
0.473048
0.508193
0.521766
0.523462
0.513799
0.511428
0.507407
0.506108
0.519319
0.525981
0.529912
0.529818
0.529288
0.528774
0.528496
0.528336
0.528685
0.528905
0.528358
0.530005
0.532024
0.532218
0.532152
0.533837
0.532891
0.532643
0.532666
0.527344
0.523085
0.519483
0.512686
0.505604
0.502657
0.502369
0.500138
0.500276
0.487747
0.492388
0.496918
0.497368
0.500854
0.504961
0.510145
0.516143
0.52261
0.528912
0.534947
0.539788
0.544638
0.54951
0.554435
0.558856
0.563101
0.56756
0.571894
0.575696
0.579465
0.583068
0.586353
0.589607
0.592857
0.596147
0.59933
0.602549
0.605685
0.608723
0.611634
0.614593
0.617318
0.619972
0.622252
0.624478
0.626489
0.628521
0.630474
0.632469
0.634393
0.63634
0.638178
0.640028
0.641805
0.64362
0.645426
0.647273
0.649142
0.651058
0.653047
0.655118
0.657327
0.659732
0.663356
0.664346
0.662544
0.766458
0.708109
0.657986
0.592556
0.563161
0.547231
0.537869
0.511948
0.490541
0.48931
0.486523
0.49043
0.505077
0.495628
0.488118
0.480086
0.495107
0.502114
0.502618
0.503914
0.499697
0.499118
0.49881
0.499305
0.499486
0.499586
0.50051
0.501314
0.501404
0.501435
0.502844
0.502161
0.502058
0.501074
0.496861
0.493318
0.490809
0.484768
0.477577
0.478139
0.479584
0.486076
0.494595
0.504921
0.517291
0.532722
0.542704
0.551403
0.560685
0.570365
0.577494
0.584634
0.592925
0.59838
0.603255
0.608415
0.613436
0.617952
0.622561
0.626465
0.630221
0.633944
0.637583
0.641308
0.644924
0.648258
0.651422
0.654354
0.657245
0.660111
0.663013
0.665958
0.668862
0.671713
0.674613
0.677313
0.680035
0.682434
0.684762
0.686825
0.688853
0.690831
0.692843
0.694864
0.696925
0.698917
0.700923
0.702813
0.704739
0.706629
0.708539
0.710415
0.712294
0.714192
0.716142
0.718184
0.720446
0.723866
0.724919
0.722562
0.820921
0.792003
0.753704
0.690942
0.631753
0.592397
0.588414
0.575294
0.548525
0.521789
0.508638
0.499185
0.500886
0.505698
0.507656
0.494701
0.491385
0.490698
0.48953
0.490871
0.494229
0.504926
0.504156
0.503351
0.502816
0.501
0.5007
0.503311
0.503804
0.503377
0.504757
0.500983
0.497758
0.490235
0.481657
0.479276
0.47946
0.483141
0.496641
0.513767
0.537408
0.550843
0.567135
0.579013
0.591233
0.603275
0.608897
0.614971
0.624207
0.629408
0.635081
0.641031
0.646485
0.649757
0.654001
0.658699
0.663832
0.667077
0.670012
0.672949
0.676443
0.680407
0.683827
0.686629
0.689374
0.692213
0.695231
0.698263
0.70098
0.703593
0.706227
0.708934
0.711741
0.714605
0.717174
0.719629
0.722121
0.724544
0.726972
0.729204
0.731341
0.733356
0.735362
0.737347
0.739338
0.741269
0.743169
0.74509
0.747055
0.749069
0.751114
0.753186
0.755306
0.757404
0.759552
0.761745
0.764136
0.767587
0.769119
0.766196
0.808279
0.820378
0.80562
0.768695
0.726225
0.676851
0.653917
0.662635
0.633636
0.598026
0.565802
0.543816
0.527179
0.526398
0.527825
0.525844
0.519139
0.510495
0.505085
0.498488
0.498426
0.499093
0.500569
0.501673
0.502792
0.504316
0.504037
0.503684
0.504692
0.506813
0.505141
0.502218
0.497987
0.492756
0.497063
0.50775
0.523342
0.544036
0.571625
0.58947
0.612172
0.620364
0.6316
0.645658
0.654675
0.663064
0.666128
0.669257
0.673706
0.675333
0.678919
0.683049
0.685914
0.688679
0.692842
0.69547
0.698454
0.700361
0.702826
0.706062
0.709908
0.712891
0.714911
0.717088
0.719627
0.722679
0.72595
0.728548
0.73088
0.733249
0.735767
0.738487
0.741383
0.744368
0.746737
0.74894
0.751173
0.75343
0.755739
0.758128
0.760431
0.762577
0.764662
0.766711
0.768705
0.770678
0.772575
0.774485
0.77643
0.778419
0.780444
0.782498
0.784607
0.786767
0.789012
0.791353
0.793927
0.797338
0.799812
0.796718
0.779442
0.818424
0.819548
0.802261
0.780969
0.754685
0.727922
0.739948
0.71186
0.672361
0.640051
0.614596
0.589293
0.576879
0.573513
0.567347
0.557594
0.545695
0.536926
0.525653
0.521035
0.515813
0.512541
0.510576
0.509003
0.509207
0.509427
0.508214
0.508389
0.508303
0.505547
0.506547
0.5093
0.517552
0.53221
0.556576
0.589024
0.622709
0.650496
0.665858
0.68347
0.686881
0.693757
0.70312
0.704449
0.705857
0.707655
0.71038
0.710287
0.709039
0.710071
0.712196
0.713331
0.718154
0.720498
0.721458
0.722674
0.724339
0.726625
0.729651
0.731417
0.733959
0.7363
0.73883
0.741965
0.744853
0.746683
0.748557
0.750672
0.753146
0.755981
0.759069
0.761973
0.764334
0.76648
0.768664
0.77094
0.77338
0.776012
0.778431
0.780565
0.782644
0.784719
0.786809
0.788925
0.791085
0.792989
0.794876
0.796796
0.798761
0.800783
0.802868
0.805039
0.807292
0.809647
0.812119
0.814839
0.81818
0.821438
0.818289
0.747808
0.798517
0.81922
0.819154
0.81164
0.803312
0.790838
0.801965
0.800097
0.775191
0.739021
0.711858
0.68485
0.663104
0.642378
0.635076
0.621004
0.60497
0.590086
0.575948
0.56509
0.553868
0.545708
0.537739
0.532725
0.527509
0.524992
0.521482
0.517327
0.516881
0.518106
0.52194
0.532284
0.556605
0.596688
0.6466
0.688231
0.719622
0.735612
0.749091
0.752506
0.751331
0.750926
0.747386
0.738961
0.727079
0.733271
0.735483
0.73631
0.738651
0.738085
0.733216
0.733365
0.736568
0.738286
0.739914
0.740888
0.741598
0.742354
0.744133
0.74558
0.747875
0.751132
0.753004
0.754968
0.757076
0.759245
0.761555
0.764149
0.76696
0.769515
0.771879
0.774172
0.776487
0.778811
0.781254
0.783899
0.786535
0.788855
0.791045
0.793215
0.795407
0.797646
0.799896
0.802161
0.80427
0.806149
0.808048
0.810001
0.812013
0.814105
0.81629
0.818571
0.820928
0.823367
0.825931
0.828761
0.832226
0.835911
0.832766
0.735511
0.771358
0.803916
0.817629
0.81646
0.819158
0.823042
0.832696
0.845301
0.839443
0.81675
0.786364
0.76429
0.744047
0.724531
0.722699
0.712428
0.694409
0.673308
0.654134
0.634427
0.618296
0.604533
0.591042
0.58041
0.568087
0.559514
0.546989
0.542964
0.534215
0.54109
0.555653
0.585665
0.634277
0.693232
0.739937
0.771976
0.792865
0.804669
0.819096
0.818696
0.819699
0.818394
0.812745
0.79897
0.781674
0.763985
0.737509
0.746229
0.757217
0.755611
0.754485
0.751194
0.747546
0.74883
0.750591
0.752007
0.753247
0.753418
0.754096
0.755654
0.757502
0.760821
0.76228
0.763958
0.765971
0.768225
0.770566
0.772965
0.775423
0.777543
0.779744
0.782134
0.784717
0.787518
0.790029
0.792196
0.794393
0.79667
0.799049
0.801491
0.803787
0.805996
0.808192
0.810359
0.812522
0.814571
0.816656
0.81881
0.821014
0.823272
0.825583
0.827951
0.830382
0.832894
0.835544
0.838472
0.842046
0.84592
0.842691
0.734635
0.757598
0.782958
0.803349
0.813597
0.819451
0.827254
0.840898
0.856236
0.871736
0.86767
0.851903
0.832598
0.818065
0.804557
0.796144
0.793266
0.780584
0.761699
0.742377
0.725298
0.706442
0.688832
0.671263
0.65441
0.636937
0.621073
0.594769
0.583194
0.565995
0.586591
0.616732
0.662804
0.726724
0.781251
0.808988
0.821738
0.836256
0.852568
0.864761
0.871016
0.874379
0.875057
0.870619
0.858029
0.842594
0.822769
0.794177
0.764791
0.740591
0.74969
0.763845
0.76619
0.765137
0.760734
0.757576
0.75893
0.759311
0.760238
0.76197
0.764102
0.764562
0.765833
0.767876
0.769972
0.772278
0.774729
0.777
0.77927
0.78123
0.783341
0.785713
0.788204
0.790627
0.792939
0.795266
0.79762
0.800142
0.802599
0.804857
0.806982
0.809065
0.811155
0.813283
0.815476
0.817741
0.820048
0.822369
0.824706
0.82705
0.829415
0.831794
0.834194
0.836633
0.839139
0.841767
0.844654
0.848175
0.852043
0.848691
0.737757
0.754772
0.774182
0.786569
0.804366
0.813291
0.824514
0.839607
0.857242
0.87627
0.887049
0.883489
0.873895
0.86597
0.85814
0.849187
0.854435
0.854431
0.843715
0.826749
0.809683
0.793172
0.777523
0.762837
0.747113
0.727231
0.705842
0.66809
0.612717
0.623883
0.649598
0.683982
0.737486
0.792949
0.826892
0.841132
0.855768
0.872603
0.886011
0.894645
0.899358
0.904498
0.908911
0.907208
0.900577
0.892929
0.877378
0.853857
0.828411
0.795901
0.74487
0.750747
0.771466
0.771229
0.771104
0.770281
0.766992
0.765907
0.766728
0.767855
0.770598
0.770824
0.771687
0.773298
0.775528
0.777928
0.780553
0.782686
0.784916
0.787398
0.789658
0.791646
0.793633
0.79571
0.797916
0.800309
0.803027
0.805573
0.807724
0.809811
0.811896
0.813994
0.816126
0.818335
0.820646
0.823057
0.825443
0.827719
0.829974
0.832222
0.83447
0.836746
0.839069
0.841465
0.843943
0.846555
0.849426
0.852926
0.856812
0.853358
0.741958
0.75616
0.771527
0.781822
0.794373
0.804223
0.81741
0.833083
0.852153
0.870685
0.888328
0.894943
0.89139
0.884765
0.879319
0.878747
0.881978
0.888089
0.886331
0.87776
0.866157
0.854226
0.842777
0.830115
0.815308
0.793754
0.760491
0.704741
0.642887
0.672243
0.696829
0.730257
0.779781
0.815184
0.83174
0.851125
0.872221
0.889754
0.902883
0.910872
0.915673
0.920996
0.924203
0.925071
0.9244
0.922617
0.916048
0.906188
0.889163
0.860699
0.824058
0.784971
0.742437
0.755536
0.770235
0.780662
0.779737
0.778218
0.774806
0.775495
0.776354
0.777475
0.779195
0.780407
0.781795
0.78378
0.786284
0.789387
0.792061
0.793721
0.795375
0.7971
0.799079
0.801408
0.803959
0.806387
0.808863
0.81126
0.813501
0.81569
0.817854
0.820025
0.82222
0.824473
0.826802
0.82918
0.831534
0.833898
0.836296
0.838549
0.840763
0.842997
0.845264
0.847572
0.849936
0.852412
0.85514
0.858523
0.862318
0.85869
0.745268
0.759609
0.773284
0.78315
0.789949
0.798852
0.809076
0.822559
0.840631
0.861279
0.880206
0.895449
0.898365
0.896268
0.892206
0.893391
0.897385
0.901535
0.909307
0.907877
0.903907
0.895779
0.885997
0.87499
0.85788
0.829844
0.776288
0.675863
0.679245
0.701254
0.726593
0.758665
0.796186
0.815601
0.835377
0.856242
0.873902
0.886221
0.89773
0.911189
0.92197
0.933545
0.934875
0.933322
0.93252
0.935906
0.940224
0.937468
0.928568
0.91241
0.890983
0.85896
0.816532
0.754853
0.756468
0.778793
0.781818
0.789193
0.788313
0.786746
0.783764
0.784443
0.78534
0.787105
0.788885
0.790819
0.793243
0.795429
0.797937
0.80026
0.802087
0.80398
0.805967
0.808207
0.810787
0.813704
0.815997
0.818099
0.820257
0.822452
0.824664
0.826917
0.829208
0.831555
0.833955
0.836412
0.838918
0.841499
0.84423
0.84687
0.849169
0.851367
0.853577
0.855798
0.858056
0.860413
0.863028
0.866326
0.870037
0.86617
0.748528
0.763223
0.776088
0.78568
0.790745
0.798242
0.805703
0.815799
0.829979
0.847772
0.866433
0.884496
0.897936
0.900038
0.897767
0.898572
0.902143
0.910027
0.917406
0.921066
0.925946
0.921556
0.913889
0.902615
0.878795
0.830908
0.755166
0.665292
0.71054
0.722757
0.743812
0.771535
0.790622
0.809018
0.828939
0.843916
0.859528
0.87235
0.885049
0.898617
0.907818
0.915331
0.924365
0.935518
0.943835
0.949303
0.947857
0.946601
0.948035
0.94535
0.93897
0.921526
0.893528
0.85345
0.805898
0.751713
0.76834
0.783215
0.8018
0.79748
0.796029
0.792249
0.793481
0.795779
0.797416
0.798261
0.799856
0.802831
0.805558
0.80831
0.809836
0.811021
0.812479
0.814605
0.817347
0.820483
0.823386
0.82539
0.827442
0.829719
0.832131
0.834467
0.836692
0.838882
0.841105
0.843414
0.845857
0.848509
0.851477
0.854264
0.856634
0.858994
0.861404
0.863873
0.866426
0.869084
0.871975
0.875507
0.879475
0.875431
0.749727
0.764318
0.779434
0.789036
0.794364
0.80027
0.806398
0.814908
0.825633
0.838035
0.853035
0.870896
0.886225
0.8976
0.897403
0.898484
0.90276
0.908391
0.914794
0.922403
0.934394
0.930447
0.921112
0.902577
0.863096
0.793663
0.679747
0.697253
0.722945
0.734622
0.752111
0.770643
0.785571
0.80165
0.816907
0.831579
0.846939
0.859687
0.87301
0.883185
0.893272
0.903861
0.915241
0.927335
0.941409
0.946359
0.951511
0.954888
0.958672
0.961422
0.964498
0.959836
0.948065
0.923057
0.886232
0.838885
0.776857
0.764394
0.786039
0.79068
0.80263
0.799828
0.798943
0.796928
0.797605
0.798689
0.80023
0.803254
0.80648
0.807006
0.807949
0.809464
0.811973
0.815976
0.819069
0.821113
0.823194
0.825416
0.828057
0.830638
0.832938
0.83528
0.837624
0.840005
0.842489
0.845102
0.847813
0.850672
0.853864
0.856709
0.859263
0.861872
0.864576
0.867366
0.870274
0.873317
0.876629
0.880627
0.885373
0.881494
0.751158
0.764775
0.780643
0.791826
0.796964
0.803449
0.809315
0.816266
0.824341
0.834024
0.845846
0.8604
0.872762
0.885214
0.894376
0.898254
0.900807
0.905643
0.913161
0.926188
0.925772
0.921503
0.913442
0.884003
0.821914
0.712284
0.698005
0.729465
0.733354
0.74224
0.753932
0.766262
0.779186
0.793522
0.807397
0.821507
0.834996
0.847204
0.85978
0.870748
0.881738
0.892991
0.904653
0.917634
0.924605
0.932328
0.943297
0.956143
0.969619
0.976701
0.975869
0.97247
0.970566
0.961738
0.945652
0.915894
0.876521
0.826196
0.757683
0.768202
0.786784
0.803651
0.809398
0.807834
0.805691
0.804699
0.804762
0.806371
0.809491
0.811718
0.812193
0.813212
0.814933
0.817705
0.821578
0.823658
0.825539
0.827668
0.830056
0.832735
0.83506
0.837331
0.839604
0.841924
0.844352
0.846961
0.849762
0.852748
0.856064
0.859104
0.861883
0.864727
0.867647
0.870636
0.873719
0.876947
0.880415
0.884588
0.889711
0.885816
0.750558
0.764405
0.780006
0.793565
0.798356
0.803638
0.812175
0.81819
0.825309
0.833705
0.843358
0.854346
0.869368
0.878306
0.887764
0.89466
0.89797
0.904367
0.913592
0.920052
0.917075
0.910359
0.888874
0.838453
0.763014
0.698538
0.725792
0.736495
0.741843
0.748081
0.755055
0.763609
0.774022
0.785999
0.798989
0.811995
0.824115
0.836759
0.848919
0.860228
0.871943
0.884079
0.895175
0.903564
0.913745
0.925268
0.936986
0.949107
0.959659
0.96568
0.975159
0.976128
0.978072
0.974811
0.974854
0.965009
0.944911
0.908569
0.862746
0.813071
0.767629
0.784878
0.795673
0.81938
0.814735
0.813468
0.810281
0.811303
0.812858
0.813983
0.815706
0.81866
0.820269
0.82222
0.824549
0.82752
0.830084
0.832256
0.833957
0.835858
0.837859
0.839921
0.842053
0.844285
0.846673
0.849216
0.851911
0.854811
0.858093
0.861485
0.864195
0.866958
0.869824
0.872816
0.875956
0.879342
0.883017
0.887436
0.893087
0.889294
0.748691
0.763548
0.778994
0.795119
0.799964
0.803556
0.812102
0.81911
0.825611
0.833488
0.842618
0.853262
0.865722
0.878181
0.883495
0.888664
0.896295
0.908498
0.910551
0.905716
0.903551
0.890717
0.847174
0.773204
0.694323
0.717931
0.737376
0.743649
0.746937
0.750226
0.754738
0.761532
0.770201
0.780273
0.791196
0.802937
0.814837
0.827317
0.839315
0.851203
0.86505
0.875439
0.884085
0.894791
0.906092
0.91805
0.928677
0.938137
0.946076
0.954516
0.96336
0.971101
0.980372
0.979733
0.985193
0.982902
0.979733
0.967791
0.94087
0.899912
0.846985
0.778896
0.783066
0.804086
0.808729
0.822353
0.820407
0.817897
0.81556
0.815826
0.817002
0.820213
0.825435
0.828063
0.829353
0.830914
0.832664
0.834583
0.837113
0.839316
0.841022
0.842971
0.845077
0.847286
0.849558
0.851976
0.854559
0.857335
0.860516
0.86392
0.866528
0.869208
0.872028
0.874987
0.878157
0.881647
0.885567
0.890201
0.896215
0.892387
0.744483
0.760993
0.77638
0.793624
0.801299
0.803067
0.810265
0.820219
0.825887
0.832029
0.840683
0.851768
0.865426
0.879946
0.88371
0.888237
0.898317
0.906509
0.90444
0.898152
0.88435
0.849252
0.783767
0.690673
0.712916
0.733196
0.744715
0.746622
0.748477
0.750692
0.754275
0.759945
0.767481
0.77631
0.786381
0.796874
0.808115
0.819897
0.831236
0.844017
0.855598
0.865174
0.876283
0.888905
0.899077
0.908585
0.918081
0.927135
0.936201
0.945608
0.954814
0.964545
0.972459
0.980917
0.992397
0.992386
0.995066
0.992962
0.985628
0.967031
0.93602
0.888694
0.838049
0.771554
0.785193
0.800362
0.823655
0.82783
0.825172
0.822338
0.82186
0.82236
0.824121
0.827807
0.832635
0.834623
0.835956
0.837608
0.839694
0.842589
0.845964
0.847864
0.849738
0.851659
0.853653
0.855891
0.858506
0.861366
0.864593
0.868075
0.870579
0.873125
0.875837
0.878684
0.881778
0.885203
0.889245
0.894001
0.900055
0.896143
0.738061
0.756261
0.774804
0.791477
0.802651
0.803211
0.807595
0.818641
0.826111
0.831294
0.838585
0.848623
0.862389
0.879548
0.885014
0.891495
0.901819
0.900447
0.895325
0.885354
0.852268
0.790788
0.692821
0.704324
0.723026
0.742857
0.745308
0.746762
0.748928
0.751726
0.755564
0.760517
0.76697
0.77488
0.784166
0.794221
0.804774
0.815945
0.827147
0.839444
0.848121
0.858859
0.870959
0.881942
0.890681
0.899427
0.909335
0.920433
0.929545
0.939134
0.948627
0.957314
0.966364
0.974518
0.982458
0.991121
0.998556
1.00621
1.00378
1.00157
0.992684
0.964398
0.923577
0.868001
0.794322
0.782543
0.807431
0.813684
0.836354
0.835429
0.832036
0.828961
0.829261
0.830398
0.832821
0.835801
0.839165
0.840726
0.842493
0.844692
0.847752
0.850102
0.851827
0.853766
0.855833
0.858073
0.860656
0.863585
0.867121
0.87134
0.874057
0.876765
0.879732
0.8829
0.886116
0.889578
0.893586
0.89846
0.904329
0.900198
0.734366
0.750117
0.768408
0.785835
0.803764
0.806498
0.807629
0.816639
0.826229
0.832027
0.839241
0.84832
0.859921
0.875415
0.884507
0.89838
0.89612
0.891401
0.8848
0.858071
0.801742
0.700907
0.699776
0.718059
0.736335
0.744032
0.746937
0.749971
0.753261
0.756593
0.760183
0.764496
0.769813
0.776522
0.78412
0.793105
0.802512
0.812841
0.823667
0.832989
0.843537
0.856017
0.866059
0.873827
0.883585
0.893792
0.903444
0.913629
0.924114
0.934626
0.943353
0.952176
0.960459
0.969314
0.977632
0.986687
0.996465
1.01079
1.01373
1.00889
1.00795
1.00291
0.98417
0.947706
0.906452
0.856201
0.782901
0.793102
0.814776
0.8284
0.844161
0.842707
0.839629
0.837053
0.836307
0.837087
0.839322
0.842809
0.847586
0.849327
0.851145
0.853011
0.854536
0.856131
0.858012
0.860229
0.862845
0.865894
0.869465
0.873954
0.877363
0.880567
0.883937
0.887471
0.890863
0.89444
0.898395
0.903291
0.909156
0.90484
0.713438
0.747001
0.763172
0.780145
0.798457
0.809732
0.809229
0.815219
0.82711
0.832688
0.838885
0.847013
0.85767
0.871306
0.884678
0.892254
0.887694
0.879694
0.857881
0.809248
0.723486
0.700165
0.724676
0.731582
0.740355
0.746623
0.751613
0.754689
0.7575
0.76053
0.763946
0.767907
0.772549
0.778174
0.784684
0.79201
0.800058
0.808539
0.818022
0.827535
0.83883
0.848438
0.858546
0.868333
0.87857
0.88801
0.897709
0.906811
0.915953
0.925584
0.933728
0.942412
0.950316
0.958475
0.96691
0.976087
0.986486
0.998397
1.00448
1.0112
1.01028
1.01085
1.01129
1.00051
0.97897
0.942465
0.891607
0.842326
0.795101
0.811964
0.823296
0.843937
0.848022
0.845824
0.843678
0.841802
0.842271
0.844913
0.849507
0.855329
0.856274
0.857286
0.858156
0.859281
0.860974
0.863499
0.866272
0.86925
0.872656
0.877008
0.882071
0.885205
0.888493
0.892082
0.895596
0.899269
0.903195
0.907957
0.913931
0.909494
0.707815
0.736486
0.759786
0.77353
0.78955
0.807988
0.811643
0.815292
0.82733
0.835366
0.838166
0.844354
0.853796
0.867405
0.883479
0.877927
0.870588
0.854848
0.809719
0.736561
0.699326
0.727039
0.729179
0.734212