/*--------------------------------*- C++ -*----------------------------------*\
| =========                 |                                                 |
| \\      /  F ield         | OpenFOAM: The Open Source CFD Toolbox           |
|  \\    /   O peration     | Version:  v2106                                 |
|   \\  /    A nd           | Website:  www.openfoam.com                      |
|    \\/     M anipulation  |                                                 |
\*---------------------------------------------------------------------------*/
FoamFile
{
    version     2.0;
    format      ascii;
    arch        "LSB;label=32;scalar=64";
    class       volScalarField;
    location    "10";
    object      T;
}
// * * * * * * * * * * * * * * * * * * * * * * * * * * * * * * * * * * * * * //

dimensions      [0 0 0 1 0 0 0];

internalField   nonuniform List<scalar> 
5250
(
1
1
1
1
1
1
1
1
1.00001
1.0001
1.00087
1.00771
1.06349
1.34478
2.07223
2.87726
2.39694
2.31528
2.35821
2.35382
2.35815
2.36762
2.37071
2.36854
2.36291
1
1
1
1
1
1
1
1
1.00001
1.0001
1.00085
1.00747
1.06178
1.33853
2.059
2.88863
2.38631
2.30491
2.3487
2.3466
2.35173
2.36176
2.36627
2.36451
2.35952
1
1
1
1
1
1
1
1
1.00001
1.00009
1.00079
1.00696
1.05806
1.32457
2.02979
2.92637
2.36912
2.28549
2.33209
2.33157
2.3382
2.35024
2.35605
2.35485
2.35042
1
1
1
1
1
1
1
1
1.00001
1.00008
1.00072
1.00627
1.05286
1.30437
1.98612
3.01882
2.36868
2.27198
2.31478
2.31168
2.31925
2.33406
2.34304
2.34313
2.34003
1
1
1
1
1
1
1
1
1.00001
1.00007
1.00064
1.00546
1.0463
1.27715
1.92998
3.05873
2.4059
2.28593
2.31941
2.30607
2.3063
2.31303
2.32491
2.3282
2.3264
1
1
1
1
1
1
1
1
1.00001
1.00005
1.0005
1.00437
1.0392
1.24628
1.86552
3.08999
2.46237
2.31831
2.33878
2.31731
2.30661
2.30437
2.30741
2.30995
2.30777
1
1
1
1
1
1
1
1
1
1.00004
1.00038
1.0034
1.03198
1.21192
1.78745
3.14438
2.55159
2.37251
2.37333
2.33882
2.31224
2.28962
2.28548
2.28838
2.28324
1
1
1
1
1
1
1
1
1
1.00003
1.00032
1.00291
1.02663
1.18419
1.7099
3.11097
2.58077
2.43131
2.41685
2.37187
2.32548
2.29028
2.26322
2.26014
2.24462
1
1
1
1
1
1
1
1
1
1.00003
1.00025
1.00228
1.021
1.15302
1.62821
3.01053
2.5616
2.48388
2.46896
2.42263
2.35194
2.29149
2.23319
2.22668
2.18134
1
1
1
1
1
1
1
1
1
1.00002
1.00021
1.00183
1.01717
1.12874
1.54418
2.85764
2.48993
2.48792
2.47609
2.44622
2.38984
2.3117
2.21819
2.1852
2.04301
1
1
1
1
1
1
1
1
1
1.00002
1.00015
1.00135
1.01238
1.09564
1.45765
2.70513
2.52247
2.43406
2.43676
2.4362
2.39974
2.32027
2.1964
2.06311
1.78298
1
1
1
1
1
1
1
1
1
1.00001
1.00009
1.00085
1.00752
1.0642
1.37266
2.52236
2.58465
2.36932
2.3736
2.40127
2.39105
2.3334
2.21669
2.07986
1.70213
1
1
1
1
1
1
1
1
1
1.00001
1.00007
1.0006
1.00513
1.04427
1.26946
1.95179
2.69652
2.25799
2.28801
2.34558
2.36073
2.32577
2.22623
2.10502
1.73886
1
1
1
1
1
1
1
1
1
1
1.00004
1.00035
1.00311
1.02906
1.19806
1.75234
2.87544
2.26896
2.2361
2.2765
2.31717
2.29674
2.22036
2.11431
1.81872
1
1
1
1
1
1
1
1
1
1
1.00003
1.00025
1.00215
1.01973
1.14341
1.58601
2.88151
2.29245
2.24069
2.22431
2.25524
2.25138
2.20494
2.12227
1.92341
1
1
1
1
1
1
1
1
1
1
1.00002
1.00015
1.00133
1.01183
1.08907
1.44058
2.75051
2.44856
2.20701
2.14
2.16197
2.1934
2.17439
2.11574
1.98266
1
1
1
1
1
1
1
1
1
1
1.00001
1.00006
1.00056
1.00493
1.04379
1.30149
2.34161
2.64566
2.2358
2.13817
2.14127
2.15177
2.13729
2.09722
2.00151
1
1
1
1
1
1
1
1
1
1
1
1.00004
1.00037
1.0032
1.02822
1.19314
1.74737
2.83597
2.25715
2.18904
2.11882
2.11534
2.09834
2.06656
1.99752
1
1
1
1
1
1
1
1
1
1
1
1.00002
1.00021
1.00178
1.01548
1.11302
1.51888
2.7847
2.3567
2.19839
2.09408
2.07435
2.05391
2.02733
1.97927
1
1
1
1
1
1
1
1
1
1
1
1.00001
1.00008
1.00079
1.00684
1.05929
1.35965
2.52946
2.50891
2.19131
2.06584
2.05365
2.03719
2.00942
1.96348
1
1
1
1
1
1
1
1
1
1
1
1.00001
1.00005
1.0004
1.00338
1.02765
1.17884
1.78747
2.75247
2.20922
2.1299
2.04706
2.02251
1.9939
1.95204
1
1
1
1
1
1
1
1
1
1
1
1
1.00006
1.00004
1.00136
1.01069
1.08663
1.51913
2.62508
2.3587
2.11821
2.0308
2.00296
1.97295
1.93675
1
1
1
1
1
1
1
1
1
1
1
1
1.00001
1.00008
1.00064
1.00518
1.04088
1.24576
2.16142
2.59799
2.13522
2.07572
2.00719
1.96551
1.9243
1
1
1
1
1
1
1
1
1
1
1
1
1.00001
1.00008
1.00007
1.00153
1.00986
1.0921
1.66546
2.68248
2.25907
2.08711
1.99372
1.95589
1.9176
1
1
1
1
1
1
1
1
1
1
1
1
1
1.00001
1.00011
1.00087
1.00688
1.05374
1.30696
2.48717
2.4602
2.10014
2.01233
1.95629
1.9158
1
1
1
1
1
1
1
1
1
1
1
1
1
1.00001
1.0001
1.0001
1.00174
1.01373
1.11395
1.78736
2.70114
2.21572
2.05545
1.95477
1.91655
1
1
1
1
1
1
1
1
1
1
1
1
1
1
1.00002
1.00012
1.00099
1.0077
1.05903
1.32799
2.49396
2.41242
2.06267
1.97787
1.92575
1
1
1
1
1
1
1
1
1
1
1
1
1
1
1.00001
1.00009
1.00005
1.00182
1.01379
1.1077
1.78131
2.66521
2.19199
2.02059
1.92962
1
1
1
1
1
1
1
1
1
1
1
1
1
1
1
1.00002
1.00012
1.00097
1.00731
1.05629
1.3256
2.45092
2.39114
2.03924
1.97568
1
1
1
1
1
1
1
1
1
1
1
1
1
1
1
1.00001
1.00005
0.999941
1.00142
1.01294
1.10291
1.71502
2.60852
2.19583
2.00166
1
1
1
1
1
1
1
1
1
1
1
1
1
1
1
1
1.00001
1.00009
1.00077
1.00611
1.04817
1.2947
2.33625
2.40714
2.05008
1
1
1
1
1
1
1
1
1
1
1
1
1
1
1
1
1
1
0.999885
1.00093
1.01132
1.09561
1.59907
2.53358
2.26414
1
1
1
1
1
1
1
1
1
1
1
1
1
1
1
1
1
1.00001
1.00009
1.00072
1.0055
1.04254
1.27169
2.22486
2.47167
1
1
1
1
1
1
1
1
1
1
1
1
1
1
1
1
1
1
1.00001
1.00011
1.00105
1.00839
1.0719
1.38492
2.29647
1
1
1
1
1
1
1
1
1
1
1
1
1
1
1
1
1
1
1.00001
1.00006
1.00041
1.00451
1.00313
1.07497
1.72667
1
1
1
1
1
1
1
1
1
1
1
1
1
1
1
1
1
1
1
1.00001
1.00007
1.00079
1.00581
1.04386
1.28362
1
1
1
1
1
1
1
1
1
1
1
1
1
1
1
1
1
1
1
1
1.00003
1.0002
1.00133
1.00775
1.07458
1
1
1
1
1
1
1
1
1
1
1
1
1
1
1
1
1
1
1
1
1
1.00003
1.00042
1.00293
1.0199
1
1
1
1
1
1
1
1
1
1
1
1
1
1
1
1
1
1
1
1
1
1
1.00007
1.00077
1.00521
1
1
1
1
1
1
1
1
1
1
1
1
1
1
1
1
1
1
1
1
1
1
1.00003
1.00022
1.00151
1
1
1
1
1
1
1
1
1
1
1
1
1
1
1
1
1
1
1
1
1
1
1.00001
1.00005
1.0004
1
1
1
1
1
1
1
1
1
1
1
1
1
1
1
1
1
1
1
1
1
1
1
1.00001
1.00009
1
1
1
1
1
1
1
1
1
1
1
1
1
1
1
1
1
1
1
1
1
1
1
1
1.00003
1
1
1
1
1
1
1
1
1
1
1
1
1
1
1
1
1
1
1
1
1
1
1
1
1
1
1
1
1
1
1
1
1
1
1
1
1
1
1
1
1
1
1
1
1
1
1
1
1
1
1
1
1
1
1
1
1
1
1
1
1
1
1
1
1
1
1
1
1
1
1
1
1
1
1
1
1
1
1
1
1
1
1
1
1
1
1
1
1
1
1
1
1
1
1
1
1
1
1
1
1
1
1
1
1
1
1
1
1
1
1
1
1
1
1
1
1
1
1
1
1
1
1
1
1
1
1
1
1
1
1
1
1
1
1
1
1
1
1
1
1
1
1
1
1
1
1
1
1
1
1
1
1
1
1
1
1
1
1
1
1
1
1
1
1
1
1
1
1
1
1
1
1
1
1
1.98245
2.23844
2.70985
2.66887
2.64737
2.69501
2.73552
2.74074
2.54623
2.47404
2.46448
2.46797
2.47132
2.48434
2.50001
2.4364
2.38025
2.35371
2.34887
2.35153
2.35473
2.35565
2.35635
2.35595
2.35304
2.35164
2.34345
2.33809
2.33607
2.33497
2.32976
2.33089
2.32865
2.3342
2.36609
2.39545
2.42306
2.46493
2.50444
2.53852
2.57002
2.61824
2.65297
2.68682
2.71489
2.72824
2.73643
2.75657
2.76535
2.785
2.78147
2.77291
2.7628
2.75065
2.74047
2.72829
2.71522
2.70157
2.68784
2.67477
2.66197
2.64965
2.63761
2.62536
2.61358
2.60184
2.59001
2.57883
2.56823
2.5576
2.54698
2.53675
2.52675
2.51679
2.50692
2.49795
2.48908
2.48091
2.4727
2.46493
2.45709
2.44955
2.44195
2.4346
2.42723
2.42004
2.41276
2.4056
2.39824
2.39093
2.38347
2.37601
2.36847
2.3608
2.35309
2.34499
2.33678
2.32366
2.32284
2.32912
2.02882
2.19654
2.37538
2.58634
2.6582
2.72683
2.8324
2.97739
2.77149
2.69939
2.69064
2.74125
2.75396
2.77578
2.78291
2.71211
2.67776
2.65789
2.65837
2.66103
2.66362
2.66502
2.66583
2.66407
2.66296
2.66571
2.65743
2.64734
2.64638
2.64671
2.63835
2.64304
2.64427
2.64416
2.67084
2.69258
2.71126
2.7472
2.78568
2.80201
2.80362
2.81613
2.81535
2.88767
2.86045
2.83437
2.83181
2.8121
2.78922
2.76088
2.7288
2.69503
2.66292
2.63288
2.60927
2.58603
2.5631
2.54034
2.52024
2.50124
2.48159
2.46278
2.44652
2.43061
2.41559
2.40205
2.38879
2.3757
2.36259
2.35004
2.33749
2.32538
2.31378
2.30277
2.29168
2.28157
2.2718
2.26347
2.2554
2.24816
2.2409
2.23396
2.22691
2.22016
2.21336
2.20699
2.20061
2.19452
2.18832
2.1822
2.17598
2.16971
2.16333
2.15674
2.14992
2.14269
2.13488
2.12322
2.12006
2.12582
1.83761
1.98903
2.14055
2.37691
2.50097
2.57378
2.61858
2.75116
2.87122
2.87844
2.89493
2.87187
2.78858
2.84175
2.88547
2.93374
2.84474
2.80504
2.80223
2.79502
2.81861
2.82188
2.82362
2.82082
2.8198
2.81924
2.81403
2.80952
2.80901
2.80884
2.80097
2.80478
2.80535
2.81086
2.83469
2.85506
2.86965
2.90541
2.94916
2.94569
2.93682
2.89759
2.84768
2.78945
2.72275
2.64388
2.59525
2.5543
2.51202
2.46939
2.4389
2.40911
2.37543
2.35377
2.33475
2.31495
2.296
2.27922
2.26235
2.24825
2.23485
2.22173
2.20905
2.19622
2.1839
2.17267
2.16212
2.15243
2.14296
2.13366
2.12432
2.11492
2.10574
2.09681
2.08779
2.07947
2.07114
2.06386
2.05685
2.05067
2.04463
2.03878
2.03286
2.02694
2.02095
2.01519
2.00942
2.00402
1.99854
1.9932
1.98782
1.98258
1.97735
1.97209
1.96672
1.96113
1.95497
1.94573
1.94291
1.94925
1.7157
1.77834
1.8687
2.03845
2.22943
2.37755
2.39364
2.44823
2.56771
2.69927
2.76906
2.8215
2.81192
2.78516
2.77442
2.84707
2.86628
2.8703
2.87715
2.86929
2.84979
2.78942
2.79368
2.79815
2.80112
2.81128
2.81296
2.79837
2.79563
2.798
2.79036
2.81138
2.82959
2.87301
2.92418
2.93871
2.93758
2.9152
2.83595
2.74142
2.62082
2.5569
2.48345
2.4325
2.38223
2.33468
2.31312
2.29027
2.25638
2.23774
2.21775
2.19717
2.17863
2.16766
2.15359
2.13823
2.1217
2.11138
2.10213
2.09295
2.08214
2.07001
2.05966
2.05126
2.04309
2.03471
2.02587
2.01708
2.00926
2.0018
1.99433
1.98672
1.97888
1.97095
1.96389
1.95719
1.95044
1.94391
1.93742
1.93149
1.92585
1.92055
1.91532
1.91016
1.90502
1.90005
1.8952
1.89031
1.88534
1.88027
1.87515
1.86999
1.86474
1.85958
1.85432
1.84898
1.84319
1.83491
1.83125
1.83824
1.74253
1.71683
1.74828
1.83226
1.93941
2.08089
2.15387
2.12553
2.22281
2.35517
2.4893
2.58994
2.67167
2.67564
2.6684
2.67846
2.71305
2.75899
2.78854
2.82544
2.8258
2.82202
2.8137
2.80751
2.80126
2.79279
2.79434
2.7963
2.79071
2.77903
2.78823
2.80446
2.82829
2.85831
2.83355
2.77391
2.69126
2.58889
2.46394
2.38935
2.30074
2.27036
2.22997
2.18142
2.15137
2.12415
2.11438
2.1045
2.0906
2.08556
2.07455
2.062
2.05339
2.04515
2.03286
2.02518
2.01653
2.01103
2.00398
1.9948
1.98399
1.97569
1.97011
1.96412
1.9572
1.94893
1.94015
1.93323
1.92706
1.92083
1.91426
1.90721
1.89976
1.89214
1.88614
1.88059
1.875
1.86938
1.86367
1.8578
1.85217
1.84696
1.84193
1.837
1.83224
1.82755
1.82306
1.81856
1.81401
1.80937
1.80468
1.79994
1.7951
1.79018
1.78508
1.7798
1.77403
1.76644
1.76098
1.76782
1.807
1.72093
1.71857
1.7556
1.80347
1.86628
1.93489
1.90345
1.97855
2.09478
2.20053
2.29167
2.39007
2.4415
2.45583
2.48252
2.52594
2.58102
2.62318
2.67943
2.70318
2.73054
2.74798
2.75855
2.76708
2.76597
2.76477
2.77137
2.77042
2.77089
2.786
2.7805
2.76546
2.72137
2.64642
2.53056
2.39116
2.26181
2.16519
2.11524
2.06074
2.0505
2.03018
2.00314
1.99936
1.99538
1.99031
1.98267
1.98293
1.98642
1.98354
1.97762
1.97447
1.96121
1.95483
1.95223
1.94894
1.94446
1.93835
1.93031
1.92565
1.91898
1.91288
1.90633
1.89827
1.89091
1.88628
1.88156
1.87625
1.87009
1.86308
1.8555
1.84843
1.84272
1.83756
1.83234
1.82693
1.82116
1.81498
1.80935
1.8044
1.79961
1.79485
1.79008
1.78528
1.7804
1.77613
1.77191
1.76764
1.76329
1.75884
1.75428
1.74954
1.74466
1.73959
1.73429
1.7285
1.72144
1.71462
1.72121
1.88344
1.76383
1.71926
1.7194
1.73531
1.7533
1.78096
1.75625
1.76035
1.81691
1.90583
1.97856
2.05658
2.12403
2.19256
2.21777
2.26802
2.32813
2.38685
2.44545
2.49243
2.54294
2.58096
2.61921
2.64386
2.67
2.6828
2.70086
2.72255
2.7249
2.71846
2.69849
2.64605
2.53043
2.36045
2.17824
2.04648
1.95721
1.91467
1.88021
1.87168
1.87461
1.87562
1.8845
1.90599
1.93714
1.92078
1.915
1.91285
1.90679
1.90825
1.92092
1.92053
1.91218
1.90773
1.90353
1.90103
1.89921
1.89728
1.89274
1.88907
1.88327
1.8751
1.87044
1.86558
1.86038
1.85507
1.84944
1.84316
1.83641
1.83031
1.8247
1.8193
1.81388
1.80846
1.80281
1.79673
1.7907
1.78544
1.78049
1.77562
1.77073
1.76576
1.76079
1.75582
1.75122
1.74714
1.74303
1.73883
1.73452
1.73006
1.72543
1.72062
1.71568
1.7106
1.70529
1.69946
1.69239
1.68493
1.69129
1.91493
1.82594
1.75199
1.7226
1.72507
1.71939
1.71127
1.69143
1.66621
1.67784
1.72446
1.79109
1.84282
1.89296
1.94395
1.94888
1.97697
2.02827
2.09184
2.15315
2.22004
2.27795
2.32982
2.383
2.42665
2.47929
2.51728
2.57491
2.594
2.63649
2.60299
2.53477
2.40487
2.22056
2.03172
1.90347
1.82447
1.77641
1.75035
1.71952
1.72036
1.71825
1.72099
1.73296
1.76283
1.80184
1.84356
1.90974
1.88742
1.86004
1.86399
1.86677
1.87495
1.8841
1.88087
1.87646
1.87292
1.86984
1.86942
1.86773
1.86388
1.85934
1.85123
1.84768
1.84362
1.83878
1.83338
1.82781
1.82214
1.81636
1.81141
1.8063
1.80078
1.79485
1.78847
1.78278
1.77791
1.77299
1.76792
1.76266
1.75729
1.75227
1.74747
1.74272
1.73806
1.73343
1.72907
1.72466
1.72012
1.7155
1.7108
1.70601
1.70113
1.69615
1.69103
1.68567
1.67978
1.67265
1.66499
1.67137
1.91721
1.8591
1.79888
1.75322
1.73114
1.71877
1.70256
1.67494
1.64493
1.61569
1.62326
1.6533
1.69163
1.72169
1.75059
1.76909
1.77551
1.80436
1.84909
1.89722
1.94189
1.99372
2.04469
2.09821
2.15224
2.21129
2.26777
2.36806
2.41506
2.48845
2.40108
2.28373
2.12499
1.93808
1.80282
1.741
1.71399
1.68423
1.65201
1.62872
1.61702
1.6108
1.60955
1.61776
1.64149
1.67157
1.71184
1.77347
1.84161
1.90179
1.87871
1.8439
1.83825
1.84078
1.85144
1.85916
1.85584
1.85491
1.85264
1.84843
1.84328
1.84217
1.83911
1.83422
1.82922
1.82376
1.81799
1.81268
1.8074
1.80286
1.798
1.79258
1.78691
1.78143
1.77624
1.77104
1.76582
1.76025
1.75486
1.74994
1.74533
1.74084
1.73635
1.73181
1.72715
1.72237
1.71752
1.71268
1.70782
1.70298
1.69812
1.69327
1.6884
1.68347
1.67845
1.67321
1.66749
1.66057
1.65303
1.65956
1.9091
1.86606
1.81928
1.79063
1.75101
1.73179
1.70822
1.67751
1.643
1.60733
1.58779
1.59419
1.61169
1.62644
1.64128
1.65859
1.6484
1.64841
1.66934
1.7036
1.73951
1.77572
1.81146
1.84633
1.88519
1.93673
1.99542
2.10818
2.2987
2.25756
2.16819
2.05919
1.9098
1.77622
1.70331
1.67447
1.64583
1.61408
1.58965
1.57431
1.56606
1.55716
1.5496
1.55251
1.56394
1.57734
1.6053
1.64952
1.70018
1.76963
1.89087
1.87607
1.82568
1.82624
1.82654
1.82849
1.83633
1.83893
1.83696
1.83427
1.82774
1.8272
1.82516
1.82136
1.81612
1.81052
1.80443
1.79951
1.7944
1.78874
1.78362
1.77914
1.77469
1.77006
1.76516
1.75988
1.75393
1.74838
1.74373
1.73923
1.73477
1.7303
1.72578
1.72112
1.71627
1.71124
1.7063
1.7016
1.69698
1.6924
1.68784
1.68325
1.67859
1.67381
1.66889
1.66374
1.65812
1.65132
1.64383
1.65048
1.89829
1.86264
1.82554
1.8015
1.77303
1.75132
1.72307
1.69065
1.65281
1.61764
1.58551
1.57379
1.58006
1.59189
1.60175
1.60279
1.59692
1.58593
1.58908
1.6046
1.62609
1.6488
1.6712
1.69669
1.72751
1.77442
1.85203
1.99854
2.19082
2.09515
2.02123
1.9287
1.80621
1.72777
1.69338
1.65481
1.61479
1.58297
1.55995
1.54627
1.53816
1.52927
1.52396
1.52253
1.52364
1.52658
1.53753
1.55426
1.58402
1.6364
1.70916
1.79427
1.89706
1.86418
1.8286
1.80418
1.80632
1.80984
1.81781
1.8162
1.81419
1.81157
1.80757
1.80477
1.80156
1.797
1.79128
1.78423
1.77821
1.77449
1.7708
1.76697
1.76259
1.75747
1.75189
1.74662
1.74127
1.73613
1.73134
1.7267
1.72213
1.71757
1.71299
1.7083
1.70349
1.69861
1.6938
1.689
1.68415
1.67963
1.67521
1.67077
1.66628
1.66175
1.65713
1.65231
1.64704
1.64055
1.63333
1.64023
1.88986
1.85418
1.82139
1.79844
1.78296
1.76309
1.74081
1.71228
1.67547
1.6353
1.60014
1.5729
1.56779
1.57146
1.57862
1.57652
1.56951
1.56228
1.54893
1.55137
1.55818
1.57232
1.58968
1.60968
1.64178
1.69725
1.81434
2.08393
2.07355
2.00847
1.93843
1.85648
1.769
1.72689
1.68601
1.64492
1.61168
1.58928
1.5689
1.54573
1.52765
1.50871
1.50657
1.50907
1.51037
1.50491
1.498
1.5024
1.5168
1.54366
1.58078
1.63972
1.72492
1.86586
1.86188
1.80851
1.80151
1.78467
1.78666
1.79022
1.79703
1.79548
1.79343
1.78941
1.78537
1.781
1.77556
1.77068
1.76512
1.75999
1.75598
1.75185
1.74753
1.74268
1.73714
1.73091
1.72605
1.72161
1.71708
1.7125
1.70791
1.70325
1.69855
1.69375
1.68888
1.68392
1.67889
1.67374
1.66833
1.66313
1.65862
1.65434
1.65006
1.64577
1.64144
1.63695
1.63199
1.62577
1.61884
1.62607
1.88163
1.8454
1.81481
1.79265
1.78117
1.76444
1.7481
1.72647
1.69697
1.66135
1.62557
1.59238
1.56854
1.56488
1.56884
1.56743
1.56123
1.5477
1.53525
1.52915
1.52109
1.52834
1.54116
1.56041
1.60271
1.69508
1.86509
2.11704
1.98223
1.94872
1.89356
1.82552
1.78145
1.74094
1.6991
1.66895
1.63863
1.61455
1.59138
1.56735
1.55147
1.53873
1.5237
1.50553
1.49226
1.48367
1.48593
1.4879
1.48565
1.48987
1.5
1.52839
1.57628
1.6503
1.74768
1.87365
1.83311
1.79829
1.75661
1.76613
1.76935
1.77779
1.77503
1.7699
1.76627
1.7644
1.76088
1.75435
1.74842
1.74246
1.73918
1.73664
1.73352
1.729
1.7232
1.71661
1.71056
1.70641
1.70218
1.6975
1.69258
1.68785
1.68336
1.67896
1.67452
1.66994
1.66512
1.65991
1.65413
1.64873
1.64417
1.63965
1.63506
1.63039
1.62559
1.62062
1.61524
1.60873
1.60147
1.60887
1.87862
1.84275
1.80702
1.78503
1.77306
1.75997
1.7466
1.72836
1.7059
1.68066
1.65111
1.61724
1.58927
1.56913
1.56947
1.56759
1.56016
1.55049
1.53964
1.52694
1.50734
1.51373
1.52908
1.56048
1.63186
1.77462
2.07202
2.02
1.94821
1.91724
1.87266
1.82763
1.7929
1.75694
1.72413
1.69371
1.66299
1.63833
1.61333
1.59474
1.57673
1.55826
1.53888
1.51882
1.49611
1.48828
1.48023
1.47499
1.46917
1.46497
1.46029
1.46739
1.48561
1.52585
1.58926
1.67896
1.81301
1.84257
1.79183
1.78131
1.75479
1.76094
1.76289
1.76735
1.76585
1.76345
1.76006
1.75343
1.74642
1.74528
1.74324
1.73998
1.7346
1.72609
1.71957
1.7153
1.71096
1.70635
1.70091
1.69563
1.69094
1.6862
1.68148
1.67672
1.67177
1.66661
1.66128
1.65569
1.6495
1.64403
1.63914
1.63418
1.62907
1.62382
1.6184
1.61276
1.60667
1.59937
1.5908
1.5978
1.87504
1.84165
1.80422
1.77874
1.76727
1.753
1.7403
1.72548
1.70858
1.68874
1.66514
1.63697
1.61379
1.59109
1.57479
1.56799
1.56354
1.55519
1.54239
1.5207
1.52138
1.52843
1.54192
1.59326
1.71362
1.97737
2.01782
1.9308
1.92056
1.89757
1.86814
1.83808
1.80759
1.77494
1.74443
1.71447
1.68678
1.66247
1.63815
1.61752
1.59736
1.57723
1.5569
1.53487
1.5233
1.51068
1.49311
1.47305
1.45258
1.44205
1.44328
1.44832
1.45116
1.46448
1.4894
1.53779
1.60686
1.70474
1.85889
1.83344
1.79014
1.75257
1.74012
1.74349
1.74813
1.75028
1.75015
1.74665
1.73992
1.73515
1.73413
1.73196
1.7283
1.72244
1.71432
1.70999
1.7061
1.70171
1.69681
1.69135
1.68665
1.68207
1.67752
1.6729
1.66808
1.66295
1.65747
1.65166
1.64526
1.63944
1.63416
1.62878
1.6233
1.61773
1.61202
1.60608
1.59976
1.59221
1.58304
1.59
1.87654
1.84254
1.80569
1.77484
1.76419
1.75259
1.73417
1.72142
1.70657
1.68939
1.67005
1.64857
1.62009
1.6036
1.58651
1.57429
1.56848
1.55739
1.54166
1.53084
1.53581
1.54714
1.58453
1.67982
1.8459
2.01628
1.94057
1.91237
1.89858
1.88275
1.86536
1.84447
1.81965
1.79192
1.76279
1.73456
1.70905
1.68322
1.65911
1.6373
1.6153
1.59313
1.57338
1.55877
1.5414
1.52221
1.50317
1.48398
1.46766
1.45851
1.44433
1.44289
1.44003
1.44484
1.44478
1.45952
1.49056
1.55019
1.63252
1.73226
1.83481
1.79448
1.77014
1.71892
1.72872
1.73141
1.73822
1.73603
1.73272
1.73032
1.72666
1.72043
1.71706
1.71298
1.70815
1.70201
1.69676
1.69233
1.68888
1.68504
1.68101
1.67688
1.67264
1.66822
1.66351
1.65853
1.65328
1.64767
1.64137
1.63491
1.62978
1.62459
1.61924
1.61369
1.6079
1.60171
1.59504
1.5871
1.57706
1.58378
1.88122
1.84461
1.80804
1.77137
1.76064
1.75277
1.73433
1.71949
1.70595
1.68983
1.67152
1.65067
1.62691
1.60383
1.59418
1.58491
1.57141
1.55031
1.54681
1.55507
1.55879
1.58125
1.66253
1.82158
2.02852
1.96182
1.91008
1.89397
1.88564
1.87737
1.86614
1.8495
1.82868
1.80507
1.78015
1.75412
1.72851
1.70243
1.6781
1.65466
1.62817
1.60885
1.59312
1.57406
1.55442
1.53418
1.51662
1.50133
1.48873
1.47556
1.46202
1.45036
1.43665
1.43759
1.42962
1.43295
1.43759
1.45533
1.49697
1.5651
1.6629
1.80827
1.79864
1.75162
1.74156
1.71271
1.71677
1.72204
1.72697
1.72641
1.72393
1.71718
1.70631
1.7009
1.69825
1.69506
1.6915
1.68761
1.68251
1.67809
1.67469
1.67082
1.66665
1.66231
1.65786
1.65316
1.64816
1.64282
1.63675
1.6303
1.6254
1.62038
1.61514
1.60968
1.60387
1.59752
1.59045
1.58217
1.57156
1.5783
1.89185
1.85081
1.81413
1.77471
1.75771
1.75384
1.73826
1.71717
1.70538
1.69279
1.67536
1.65356
1.62747
1.60061
1.59379
1.58567
1.56788
1.55371
1.55726
1.56817
1.59264
1.65846
1.79703
2.03924
1.97562
1.92097
1.89126
1.88643
1.88175
1.8762
1.86729
1.85336
1.83516
1.81429
1.79105
1.76747
1.74288
1.71784
1.69441
1.66875
1.64616
1.62794
1.6073
1.58448
1.56655
1.55016
1.53412
1.51914
1.50443
1.48947
1.4751
1.46022
1.44834
1.43585
1.41924
1.41926
1.41543
1.41843
1.42899
1.45647
1.50472
1.58485
1.68063
1.82547
1.79376
1.75977
1.71
1.70138
1.70686
1.71274
1.71374
1.71269
1.70903
1.70142
1.69156
1.68753
1.68484
1.68151
1.67734
1.67157
1.66491
1.66118
1.65751
1.65377
1.64991
1.6456
1.64058
1.63514
1.62903
1.6225
1.61783
1.61311
1.60812
1.60291
1.59728
1.5911
1.58387
1.57545
1.56485
1.57168
1.90831
1.86239
1.81782
1.77952
1.75475
1.75352
1.74401
1.72047
1.70492
1.69429
1.67956
1.65969
1.6332
1.60133
1.59145
1.57987
1.56179
1.56417
1.57312
1.59083
1.65259
1.78107
2.03292
1.99972
1.948
1.89599
1.88976
1.88608
1.88062
1.87362
1.86411
1.85196
1.83638
1.81764
1.79611
1.77337
1.75012
1.72616
1.70278
1.67784
1.66067
1.63991
1.61713
1.59699
1.58132
1.56594
1.54888
1.53021
1.5152
1.49973
1.48473
1.47125
1.45747
1.44528
1.4336
1.42107
1.41049
1.39976
1.40314
1.40624
1.41883
1.46045
1.525
1.62264
1.77315
1.79984
1.74436
1.73096
1.68404
1.6859
1.69278
1.69906
1.69844
1.69612
1.69118
1.68515
1.67839
1.67528
1.67177
1.66741
1.66139
1.6568
1.65345
1.64969
1.64571
1.64141
1.63648
1.63093
1.62428
1.61642
1.61139
1.60642
1.601
1.59526
1.58947
1.58328
1.57618
1.56763
1.55745
1.5646
1.91791
1.87764
1.83295
1.7923
1.75232
1.74638
1.74393
1.72469
1.70467
1.69279
1.67824
1.66028
1.63788
1.6089
1.59236
1.56777
1.57172
1.58004
1.59183
1.64142
1.75674
2.00947
2.01272
1.96147
1.91279
1.893
1.88564
1.87801
1.8698
1.86157
1.85278
1.84233
1.8296
1.81379
1.79622
1.77587
1.75505
1.73275
1.70998
1.69084
1.6697
1.64535
1.62628
1.61182
1.59402
1.57582
1.55898
1.5416
1.52411
1.50697
1.49303
1.47919
1.46644
1.45304
1.44068
1.42745
1.41345
1.39341
1.38937
1.39603
1.39734
1.40436
1.4311
1.48617
1.55381
1.645
1.79901
1.77588
1.72863
1.70021
1.66846
1.67134
1.67747
1.68263
1.68413
1.68256
1.67808
1.67114
1.66172
1.65831
1.65477
1.65115
1.6482
1.64513
1.64153
1.6373
1.63233
1.62658
1.61991
1.61159
1.60532
1.59948
1.59338
1.58704
1.581
1.57467
1.56774
1.55924
1.54918
1.55657
1.97417
1.88547
1.84552
1.80537
1.76396
1.7394
1.74049
1.7277
1.70286
1.69145
1.67895
1.66284
1.64218
1.61648
1.59205
1.57853
1.58664
1.60107
1.64178
1.74044
1.94675
2.0116
1.94356
1.92521
1.9024
1.88643
1.87391
1.86627
1.85934
1.85193
1.84365
1.83414
1.82312
1.80994
1.79493
1.77833
1.76044
1.74197
1.72178
1.70198
1.67906
1.66005
1.64051
1.62202
1.60312
1.58607
1.56894
1.55319
1.53769
1.52169
1.50842
1.49452
1.48209
1.46947
1.45665
1.44296
1.42775
1.41071
1.40217
1.39284
1.39412
1.39333
1.39273
1.40773
1.43871
1.49443
1.57968
1.6721
1.77141
1.73462
1.71075
1.6689
1.66087
1.66518
1.66942
1.67314
1.67221
1.66698
1.65796
1.64668
1.64486
1.64292
1.64125
1.6391
1.63588
1.6311
1.62588
1.62031
1.61398
1.60597
1.59676
1.5911
1.58521
1.57884
1.57264
1.56622
1.55941
1.55123
1.54109
1.54861
1.98986
1.91239
1.85375
1.82081
1.78387
1.74316
1.73531
1.72754
1.7024
1.68603
1.6804
1.66808
1.64963
1.62375
1.59421
1.60429
1.61782
1.6476
1.73943
1.9122
2.01401
1.93724
1.93156
1.91832
1.90082
1.88111
1.8692
1.85947
1.85169
1.84445
1.83668
1.82808
1.81854
1.80778
1.79544
1.78142
1.76562
1.74862
1.73033
1.71132
1.69161
1.67177
1.65188
1.63269
1.61461
1.59692
1.57902
1.56302
1.54716
1.53286
1.51843
1.50522
1.49253
1.47975
1.46666
1.45266
1.43768
1.4226
1.41202
1.3994
1.38441
1.37464
1.37345
1.38067
1.3907
1.41067
1.44679
1.50861
1.5927
1.74072
1.73735
1.69488
1.6807
1.64702
1.64789
1.65419
1.65612
1.65509
1.64983
1.643
1.6345
1.63299
1.63196
1.62999
1.62716
1.62363
1.61827
1.61175
1.60436
1.59543
1.58544
1.58045
1.57525
1.56929
1.56294
1.55657
1.55006
1.54247
1.5329
1.54045
2.09811
1.97859
1.86677
1.81916
1.78531
1.74759
1.72795
1.72467
1.70698
1.68516
1.67864
1.67166
1.65762
1.62732
1.61754
1.63537
1.66454
1.7468
1.88991
2.03384
1.94203
1.93693
1.9249
1.90885
1.89292
1.88137
1.86924
1.85686
1.84569
1.83789
1.83058
1.82257
1.81377
1.80403
1.79282
1.78024
1.76604
1.75082
1.73451
1.71727
1.69923
1.68029
1.66107
1.64187
1.62356
1.60562
1.58852
1.57259
1.55657
1.54293
1.529
1.51611
1.50272
1.48931
1.47566
1.46186
1.44734
1.43717
1.42584
1.4135
1.39975
1.38633
1.3704
1.37044
1.3761
1.37593
1.38352
1.40886
1.45797
1.53427
1.62241
1.74375
1.7192
1.68148
1.65731
1.62768
1.63151
1.6423
1.64292
1.64093
1.63448
1.62762
1.62082
1.61883
1.61639
1.61265
1.60684
1.59967
1.59171
1.5823
1.57206
1.56752
1.56282
1.55733
1.55143
1.54576
1.53988
1.53289
1.52378
1.53164
2.19025
1.91991
1.88497
1.82597
1.79318
1.7589
1.72911
1.72049
1.71241
1.69137
1.67654
1.67288
1.66198
1.64434
1.65255
1.67436
1.75343
1.89695
2.05748
1.96272
1.95341
1.93739
1.91468
1.90392
1.89462
1.88351
1.87048
1.85607
1.84307
1.83168
1.82309
1.81488
1.8065
1.79748
1.78767
1.77702
1.76522
1.7522
1.73783
1.72238
1.70594
1.68871
1.67108
1.65311
1.63526
1.61759
1.60019
1.58349
1.56805
1.55335
1.53969
1.5259
1.51221
1.49851
1.48385
1.47003
1.45644
1.4448
1.43345
1.42055
1.40528
1.38944
1.38149
1.37268
1.36595
1.367
1.36397
1.36868
1.38731
1.41828
1.46722
1.55125
1.66046
1.71939
1.67783
1.66402
1.63182
1.62338
1.62585
1.62977
1.62864
1.62504
1.6176
1.60734
1.60379
1.601
1.59685
1.5908
1.58216
1.57105
1.55918
1.55529
1.55136
1.54644
1.54098
1.53532
1.52935
1.52224
1.51356
1.52195
2.48046
2.11905
1.90763
1.84813
1.81098
1.78802
1.75054
1.72885
1.72842
1.71068
1.6837
1.67816
1.67596
1.67925
1.69611
1.7615
1.89702
2.08822
1.98684
1.97763
1.9549
1.92476
1.91608
1.90768
1.89799
1.88607
1.87262
1.85874
1.84433
1.83023
1.8193
1.81092
1.80259
1.79369
1.78426
1.77428
1.76344
1.75156
1.73867
1.72478
1.7101
1.69469
1.67846
1.66161
1.64425
1.62672
1.60912
1.59274
1.57652
1.56256
1.54847
1.53427
1.51999
1.50548
1.49067
1.47639
1.46165
1.44834
1.43643
1.4237
1.41048
1.39771
1.38664
1.37919
1.37096
1.36131
1.35762
1.3549
1.35559
1.35997
1.37367
1.42268
1.49364
1.5878
1.72732
1.70452
1.66338
1.64047
1.60687
1.6057
1.60917
1.6083
1.60597
1.60195
1.59763
1.59309
1.58855
1.58223
1.57279
1.55991
1.55041
1.54676
1.5428
1.53787
1.53226
1.52609
1.52005
1.51355
1.50451
1.51278
2.21295
2.3339
2.00847
1.90814
1.82041
1.79226
1.76188
1.73378
1.7278
1.71872
1.69015
1.68929
1.70167
1.72297
1.78735
1.91495
2.11115
2.01294
1.99957
1.97426
1.93768
1.93094
1.92335
1.91347
1.90125
1.88825
1.87587
1.86276
1.8488
1.83432
1.81955
1.80848
1.79957
1.7906
1.78135
1.7717
1.76167
1.75106
1.73965
1.72738
1.71422
1.7001
1.6851
1.66933
1.65273
1.63554
1.61827
1.60125
1.58537
1.57034
1.55615
1.54193
1.52739
1.51272
1.49826
1.48286
1.46769
1.45342
1.44154
1.43141
1.41881
1.40277
1.39392
1.3858
1.37778
1.36931
1.36016
1.35057
1.35042
1.34643
1.34417
1.35543
1.39465
1.45512
1.5361
1.6381
1.69964
1.65495
1.64054
1.61728
1.58823
1.58993
1.59816
1.5962
1.58977
1.58416
1.57826
1.57164
1.56198
1.54785
1.54088
1.53803
1.53442
1.52961
1.52374
1.51648
1.51041
1.50444
1.49646
1.50416
1.48822
2.29604
2.16548
1.9032
1.85787
1.79876
1.77289
1.74246
1.72397
1.71692
1.70632
1.71258
1.73285
1.80677
1.94455
2.15242
2.06409
2.03254
1.98796
1.95794
1.95028
1.941
1.93016
1.91765
1.90491
1.89305
1.88026
1.8665
1.85203
1.83726
1.8221
1.80845
1.79847
1.789
1.77959
1.76988
1.75971
1.74908
1.73791
1.72612
1.71358
1.70028
1.68607
1.67099
1.65515
1.6385
1.62114
1.60415
1.58876
1.57412
1.55983
1.54555
1.53103
1.51626
1.50147
1.48661
1.47165
1.45859
1.4461
1.43344
1.42068
1.40786
1.39924
1.39091
1.38383
1.37584
1.36757
1.35912
1.34987
1.3368
1.33703
1.3421
1.35147
1.37489
1.4186
1.48918
1.58151
1.69971
1.68848
1.6537
1.63182
1.59519
1.5839
1.58426
1.58723
1.58534
1.58136
1.57454
1.56458
1.54948
1.53745
1.53371
1.53019
1.52501
1.51829
1.50918
1.50168
1.49479
1.48732
1.49355
1.14773
1.70746
2.38471
2.08551
1.87715
1.82429
1.78156
1.75276
1.712
1.71381
1.72928
1.74743
1.81687
1.96256
2.19593
2.115
2.07246
2.00427
1.9804
1.97728
1.96747
1.9545
1.93992
1.92413
1.91138
1.89797
1.88391
1.86942
1.85447
1.83914
1.82346
1.80848
1.79637
1.78581
1.77541
1.76514
1.75477
1.74433
1.73362
1.72245
1.71081
1.69857
1.68565
1.67189
1.65719
1.64171
1.62542
1.60963
1.59479
1.57998
1.56577
1.55123
1.53699
1.5226
1.50812
1.49409
1.47993
1.46774
1.45513
1.44211
1.43171
1.42161
1.40968
1.40317
1.39777
1.39122
1.38438
1.37681
1.36803
1.35918
1.34402
1.33916
1.35087
1.35481
1.36525
1.39775
1.4501
1.53266
1.65475
1.70287
1.67975
1.65505
1.62652
1.58566
1.5848
1.58795
1.58555
1.58013
1.57132
1.55785
1.54096
1.53589
1.53108
1.5252
1.5183
1.5103
1.50144
1.49337
1.48394
1.48935
1.04449
1.28726
2.24326
2.29181
1.99225
1.87891
1.80076
1.75376
1.7132
1.72484
1.75244
1.83119
1.98377
2.21917
2.14347
2.10528
2.03475
1.99546
1.99431
1.98778
1.97807
1.96486
1.94815
1.93041
1.91492
1.89937
1.88372
1.8682
1.85267
1.83689
1.82089
1.80497
1.79132
1.77949
1.76788
1.75635
1.74488
1.73377
1.72282
1.71166
1.70016
1.68837
1.67617
1.66334
1.64965
1.63541
1.62066
1.60625
1.59226
1.57848
1.56471
1.55126
1.5377
1.52433
1.51108
1.49827
1.48683
1.47544
1.46416
1.45265
1.44231
1.43179
1.42395
1.41807
1.41237
1.40666
1.40067
1.39465
1.38849
1.3817
1.37336
1.36171
1.35679
1.36609
1.37076
1.37507
1.39239
1.44938
1.52467
1.60505
1.75105
1.73151
1.68245
1.65684
1.61977
1.60479
1.60071
1.59404
1.58433
1.57245
1.55918
1.54966
1.53814
1.53067
1.52316
1.51475
1.50574
1.49614
1.48452
1.4895
1.0095
1.07376
1.38875
2.16047
2.08054
1.84972
1.80285
1.74692
1.73685
1.75084
1.82963
2.00203
2.2437
2.13546
2.10468
2.03217
2.00447
2.0057
2.00031
1.98953
1.97373
1.95514
1.93523
1.91813
1.90302
1.88832
1.8735
1.85867
1.84379
1.8288
1.81355
1.79815
1.783
1.76997
1.7573
1.74475
1.73267
1.72141
1.71175
1.70208
1.69203
1.6816
1.67081
1.65942
1.64732
1.6347
1.62216
1.61034
1.59854
1.58668
1.57478
1.56272
1.55066
1.53844
1.52674
1.51509
1.50398
1.49401
1.48413
1.47409
1.46616
1.45866
1.45075
1.44543
1.44237
1.43906
1.43544
1.43233
1.42874
1.42395
1.4185
1.4118
1.4104
1.41066
1.41009
1.41555
1.42624
1.43821
1.47084
1.51345
1.59965
1.71408
1.77245
1.745
1.70269
1.67554
1.64156
1.62503
1.61731
1.60652
1.59387
1.57848
1.5615
1.54938
1.53869
1.52859
1.51813
1.5069
1.49234
1.49641
1.004
1.00129