/*--------------------------------*- C++ -*----------------------------------*\
| =========                 |                                                 |
| \\      /  F ield         | OpenFOAM: The Open Source CFD Toolbox           |
|  \\    /   O peration     | Version:  v2106                                 |
|   \\  /    A nd           | Website:  www.openfoam.com                      |
|    \\/     M anipulation  |                                                 |
\*---------------------------------------------------------------------------*/
FoamFile
{
    version     2.0;
    format      ascii;
    arch        "LSB;label=32;scalar=64";
    class       volVectorField;
    location    "10";
    object      U;
}
// * * * * * * * * * * * * * * * * * * * * * * * * * * * * * * * * * * * * * //

dimensions      [0 1 -1 0 0 0 0];

internalField   nonuniform List<vector> 
5250
(
(3 -3.65962e-15 0)
(3 4.55183e-15 0)
(3 6.99806e-14 0)
(3 2.60553e-13 0)
(3 5.61464e-12 0)
(3 2.2431e-11 0)
(3 4.3961e-10 0)
(3 2.15277e-09 0)
(3 3.39129e-08 0)
(3.00001 2.05534e-07 0)
(3.00008 2.55047e-06 0)
(3.00068 1.94032e-05 0)
(3.00674 0.000190083 0)
(3.06394 0.00194747 0)
(2.65831 0.00158998 0)
(1.11047 0.0410079 0)
(0.309572 0.0165602 0)
(0.536146 0.0208952 0)
(0.444251 0.0223523 0)
(0.376025 0.0232076 0)
(0.325711 0.0226256 0)
(0.257661 0.0241532 0)
(0.193498 0.0275865 0)
(0.119674 0.0303044 0)
(0.0451678 0.037452 0)
(3 -7.87623e-15 0)
(3 9.76694e-15 0)
(3 2.23755e-13 0)
(3 3.3581e-13 0)
(3 1.86348e-11 0)
(3 2.00649e-11 0)
(3 1.4624e-09 0)
(3 2.92737e-09 0)
(3 1.07748e-07 0)
(3.00001 5.14714e-07 0)
(3.00007 8.40861e-06 0)
(3.00068 5.58045e-05 0)
(3.00629 0.000622372 0)
(3.06461 0.00619816 0)
(2.66912 0.00790813 0)
(1.13612 0.123448 0)
(0.297931 0.0439269 0)
(0.533229 0.0571416 0)
(0.438491 0.0603096 0)
(0.372758 0.0659065 0)
(0.321043 0.0742749 0)
(0.252658 0.0805307 0)
(0.189463 0.0851573 0)
(0.113887 0.0920359 0)
(0.0400471 0.0997017 0)
(3 -9.49199e-15 0)
(3 1.50892e-14 0)
(3 4.11321e-13 0)
(3 -4.68028e-13 0)
(3 3.46148e-11 0)
(3 -9.18785e-11 0)
(3 2.74804e-09 0)
(3 -4.69088e-09 0)
(3 2.11292e-07 0)
(3.00001 4.95071e-08 0)
(3.00006 1.4489e-05 0)
(3.0007 6.34248e-05 0)
(3.00534 0.00107773 0)
(3.06605 0.0101729 0)
(2.69579 0.0145763 0)
(1.21473 0.209432 0)
(0.281138 0.0819211 0)
(0.532334 0.097226 0)
(0.431865 0.103304 0)
(0.365052 0.112248 0)
(0.317504 0.120266 0)
(0.253371 0.12791 0)
(0.188879 0.140545 0)
(0.115119 0.152928 0)
(0.0394673 0.164726 0)
(3 -2.26878e-14 0)
(3 3.90465e-14 0)
(3 6.73929e-13 0)
(3 -6.75278e-13 0)
(3 6.46049e-11 0)
(3 -5.45935e-10 0)
(3 5.3394e-09 0)
(3 -1.02852e-07 0)
(3 3.21369e-07 0)
(3.00001 -1.98482e-06 0)
(3.00005 2.35381e-05 0)
(3.00074 4.97581e-06 0)
(3.00405 0.00149879 0)
(3.06732 0.0134287 0)
(2.7331 0.0214757 0)
(1.35352 0.293555 0)
(0.271636 0.126221 0)
(0.5397 0.13646 0)
(0.435402 0.145616 0)
(0.366542 0.153065 0)
(0.320137 0.166324 0)
(0.25487 0.183274 0)
(0.192707 0.198797 0)
(0.117287 0.21606 0)
(0.041313 0.229272 0)
(3 -3.44863e-14 0)
(3 5.11869e-14 0)
(3 5.03357e-13 0)
(3 4.50513e-12 0)
(3 4.25251e-11 0)
(3 2.93587e-10 0)
(3 6.49543e-09 0)
(3 -2.36936e-08 0)
(3 7.32448e-07 0)
(3.00001 -1.7138e-05 0)
(3.00002 3.08191e-05 0)
(3.00084 -0.000280943 0)
(3.00257 0.00194922 0)
(3.06787 0.0157122 0)
(2.77892 0.0299476 0)
(1.5306 0.356341 0)
(0.283503 0.182281 0)
(0.554861 0.180989 0)
(0.45285 0.1906 0)
(0.374944 0.199145 0)
(0.328354 0.212218 0)
(0.265135 0.229785 0)
(0.199794 0.254013 0)
(0.126143 0.279666 0)
(0.0418686 0.298362 0)
(3 6.43085e-14 0)
(3 -5.77901e-14 0)
(3 1.01571e-12 0)
(3 -6.20849e-12 0)
(3 9.84505e-11 0)
(3 2.35491e-10 0)
(3 3.25023e-09 0)
(3 3.40859e-08 0)
(3 3.43751e-07 0)
(3 1.22493e-06 0)
(3.00003 5.87621e-05 0)
(3.00055 -0.00100621 0)
(3.00117 0.0021305 0)
(3.06657 0.0165913 0)
(2.82973 0.0357564 0)
(1.76337 0.401598 0)
(0.317251 0.24857 0)
(0.576167 0.229728 0)
(0.483011 0.241414 0)
(0.390796 0.249324 0)
(0.344225 0.259795 0)
(0.27399 0.289571 0)
(0.21107 0.315943 0)
(0.131321 0.349369 0)
(0.0480008 0.37215 0)
(3 -4.02713e-14 0)
(3 1.05412e-13 0)
(3 -1.52794e-12 0)
(3 2.17808e-13 0)
(3 -9.92807e-11 0)
(3 -4.43914e-10 0)
(3 7.93794e-09 0)
(3 7.98427e-09 0)
(3 4.49373e-07 0)
(3.00001 1.45809e-06 0)
(3 2.69095e-05 0)
(3.0006 0.000175931 0)
(2.99988 0.00170702 0)
(3.06256 0.0146538 0)
(2.88063 0.0306596 0)
(2.05995 0.397976 0)
(0.401075 0.3257 0)
(0.61589 0.287186 0)
(0.537022 0.292362 0)
(0.426279 0.30638 0)
(0.377704 0.308946 0)
(0.304693 0.338363 0)
(0.244026 0.374197 0)
(0.141081 0.421646 0)
(0.0704513 0.454345 0)
(3 -3.44142e-14 0)
(3 1.64081e-13 0)
(3 -7.03353e-13 0)
(3 8.30736e-12 0)
(3 -1.02464e-10 0)
(3 -1.13041e-10 0)
(3 4.95451e-09 0)
(3 5.05506e-09 0)
(3 2.71432e-07 0)
(3.00002 1.1095e-06 0)
(2.99993 1.85049e-05 0)
(3.0009 0.000120674 0)
(2.999 0.00134956 0)
(3.05562 0.0129588 0)
(2.92354 0.042729 0)
(2.19968 0.331476 0)
(0.498243 0.397716 0)
(0.652675 0.356663 0)
(0.58895 0.361437 0)
(0.480305 0.371079 0)
(0.420213 0.365956 0)
(0.329747 0.408964 0)
(0.2582 0.457631 0)
(0.17294 0.503331 0)
(0.0721554 0.559105 0)
(3 4.28693e-14 0)
(3 -4.38578e-13 0)
(3 -3.99991e-13 0)
(3 9.50455e-12 0)
(3 5.30863e-11 0)
(3 7.67235e-10 0)
(3 -1.06402e-08 0)
(3 -9.33228e-09 0)
(3 1.80236e-07 0)
(3.00002 1.38749e-06 0)
(2.99993 1.53617e-05 0)
(3.00081 0.000124847 0)
(2.99858 0.00125135 0)
(3.0466 0.0108153 0)
(2.96793 0.0555851 0)
(2.3241 0.278672 0)
(0.59116 0.446059 0)
(0.67698 0.416859 0)
(0.641805 0.411566 0)
(0.541579 0.444152 0)
(0.480734 0.433067 0)
(0.377139 0.477382 0)
(0.334004 0.519417 0)
(0.223087 0.58427 0)
(0.146409 0.682499 0)
(3 3.5704e-14 0)
(3 -8.83895e-14 0)
(3 9.40048e-13 0)
(3 9.76431e-13 0)
(3 1.33839e-10 0)
(3 5.01911e-10 0)
(3 -1.60666e-09 0)
(3 3.06104e-08 0)
(3 4.96816e-08 0)
(3.00002 1.94015e-06 0)
(2.9999 8.92817e-06 0)
(3.00092 0.00013701 0)
(2.99711 0.00092854 0)
(3.04804 0.0105834 0)
(3.00504 0.0592604 0)
(2.452 0.241536 0)
(0.678039 0.49834 0)
(0.693749 0.446967 0)
(0.66944 0.475159 0)
(0.614329 0.499505 0)
(0.548838 0.509093 0)
(0.442573 0.552901 0)
(0.379872 0.613399 0)
(0.294413 0.700078 0)
(0.0968908 0.915773 0)
(3 1.04315e-14 0)
(3 2.79454e-14 0)
(3 2.46447e-12 0)
(3 1.33362e-12 0)
(3 1.18471e-10 0)
(3 5.05401e-10 0)
(3 8.58564e-09 0)
(3 7.46301e-08 0)
(3 -5.53518e-08 0)
(3.00001 2.7542e-06 0)
(2.99999 4.6777e-06 0)
(3.0003 0.000173256 0)
(3.00025 0.000826799 0)
(3.02025 -0.0419812 0)
(3.02977 0.0680645 0)
(2.5739 0.228511 0)
(0.840658 0.55595 0)
(0.652356 0.45523 0)
(0.692866 0.485029 0)
(0.663134 0.570964 0)
(0.621578 0.582758 0)
(0.529097 0.630169 0)
(0.468592 0.698607 0)
(0.474423 0.802018 0)
(0.415575 1.08753 0)
(3 9.05158e-16 0)
(3 5.17024e-14 0)
(3 8.8612e-13 0)
(3 6.65676e-12 0)
(3 -5.85517e-12 0)
(3 3.67611e-10 0)
(3 7.44727e-11 0)
(3 1.90765e-08 0)
(3 5.55853e-08 0)
(2.99999 1.25455e-06 0)
(3.00005 7.70172e-06 0)
(2.99985 9.99619e-05 0)
(3.00234 0.000789264 0)
(2.99969 0.00865262 0)
(3.06481 0.0594813 0)
(2.70526 0.221068 0)
(1.09791 0.649623 0)
(0.579576 0.465553 0)
(0.676549 0.501375 0)
(0.67977 0.589267 0)
(0.685818 0.652326 0)
(0.629581 0.706764 0)
(0.59296 0.763005 0)
(0.679045 0.85551 0)
(0.670542 1.00994 0)
(3 -2.06283e-14 0)
(3 2.62833e-14 0)
(3 1.30579e-12 0)
(3 -3.05982e-12 0)
(3 2.31712e-11 0)
(3 1.29037e-10 0)
(3 2.56156e-09 0)
(3 3.71088e-09 0)
(3 4.35566e-08 0)
(3 5.55473e-07 0)
(3.00001 -1.65267e-06 0)
(3.00003 6.17242e-05 0)
(3.00072 -0.000468882 0)
(3.00222 0.00425184 0)
(3.0737 0.0438414 0)
(2.85106 0.17419 0)
(1.5512 0.755216 0)
(0.560689 0.49716 0)
(0.677229 0.510826 0)
(0.687664 0.588736 0)
(0.697164 0.668021 0)
(0.723641 0.74857 0)
(0.721728 0.802589 0)
(0.799442 0.89078 0)
(0.874028 0.905346 0)
(3 -4.14485e-15 0)
(3 -1.68092e-15 0)
(3 -3.57809e-13 0)
(3 -2.02602e-12 0)
(3 1.44089e-11 0)
(3 -4.17309e-11 0)
(3 5.25128e-10 0)
(3 -3.10093e-09 0)
(3 8.21895e-09 0)
(3 7.74542e-07 0)
(3.00001 4.05546e-06 0)
(2.99998 5.18907e-05 0)
(3.00071 0.000355276 0)
(2.99949 0.00346475 0)
(3.0608 0.0282511 0)
(2.94423 0.099359 0)
(2.13619 0.790782 0)
(0.658146 0.584338 0)
(0.712602 0.546693 0)
(0.714191 0.590195 0)
(0.72659 0.658762 0)
(0.764606 0.738969 0)
(0.809871 0.802776 0)
(0.891616 0.880299 0)
(0.97286 0.876442 0)
(3 -1.35484e-15 0)
(3 3.42142e-14 0)
(3 1.55599e-13 0)
(3 2.63536e-12 0)
(3 1.80041e-11 0)
(3 -1.16645e-11 0)
(3 6.22146e-10 0)
(3 1.06345e-09 0)
(3 3.43987e-08 0)
(3 1.87524e-07 0)
(3.00003 2.74431e-06 0)
(2.99987 2.00044e-05 0)
(3.00121 0.000230587 0)
(2.99655 0.00192385 0)
(3.058 0.0209006 0)
(2.99595 0.0829293 0)
(2.50139 0.657444 0)
(0.892665 0.697992 0)
(0.786833 0.587946 0)
(0.762784 0.611079 0)
(0.768738 0.660352 0)
(0.803338 0.732651 0)
(0.861198 0.795431 0)
(0.949915 0.869915 0)
(1.04079 0.872515 0)
(3 2.71507e-15 0)
(3 7.15864e-15 0)
(3 2.87644e-13 0)
(3 6.24014e-12 0)
(3 -2.58044e-11 0)
(3 2.21875e-10 0)
(3 -5.26838e-10 0)
(3 1.01532e-08 0)
(3 1.2424e-07 0)
(3 -1.04902e-07 0)
(3 3.35502e-06 0)
(3.00001 1.17875e-05 0)
(3.00017 -8.85688e-05 0)
(3.00065 0.00209567 0)
(3.01675 -0.0477367 0)
(3.03395 0.106808 0)
(2.72426 0.520123 0)
(1.23608 0.816804 0)
(0.816463 0.637911 0)
(0.820513 0.639743 0)
(0.824629 0.672794 0)
(0.850102 0.726823 0)
(0.902858 0.77695 0)
(0.984053 0.834784 0)
(1.08233 0.849039 0)
(3 5.30743e-16 0)
(3 -1.46964e-15 0)
(3 9.27668e-15 0)
(3 6.8614e-13 0)
(3 1.67252e-12 0)
(3 2.86821e-11 0)
(3 1.19055e-10 0)
(3 1.40121e-09 0)
(3 2.87244e-08 0)
(3 1.2447e-07 0)
(2.99999 1.897e-06 0)
(3.00009 1.21875e-05 0)
(2.99955 0.000136404 0)
(3.00343 0.00100215 0)
(2.98937 0.0100797 0)
(3.0819 0.0699155 0)
(2.91601 0.358806 0)
(1.7598 0.917794 0)
(0.825853 0.694202 0)
(0.855858 0.683613 0)
(0.869558 0.701825 0)
(0.888504 0.737431 0)
(0.934682 0.769679 0)
(1.00971 0.809686 0)
(1.09731 0.834218 0)
(3 5.43473e-16 0)
(3 1.37752e-14 0)
(3 7.11153e-14 0)
(3 1.2267e-12 0)
(3 8.71581e-12 0)
(3 9.13661e-12 0)
(3 3.96638e-10 0)
(3 1.22874e-09 0)
(3 2.84794e-08 0)
(3 1.67045e-07 0)
(3 -2.54611e-07 0)
(3.00003 8.70006e-06 0)
(2.99987 1.47909e-05 0)
(3.0014 0.000532127 0)
(2.99798 0.00280338 0)
(3.07222 0.0388476 0)
(3.01332 0.204625 0)
(2.35464 0.927219 0)
(0.984932 0.771212 0)
(0.919811 0.718926 0)
(0.924082 0.708381 0)
(0.941501 0.729251 0)
(0.977908 0.755108 0)
(1.0373 0.78929 0)
(1.12024 0.808341 0)
(3 -3.06433e-17 0)
(3 1.25905e-14 0)
(3 6.01103e-14 0)
(3 -1.28275e-14 0)
(3 2.22047e-12 0)
(3 5.70706e-12 0)
(3 2.7528e-10 0)
(3 1.44215e-09 0)
(3 -1.08615e-09 0)
(3 6.69976e-08 0)
(3 3.51682e-08 0)
(3 -1.75797e-07 0)
(3.00001 2.17879e-05 0)
(3.00025 -4.38014e-05 0)
(3.00101 0.00273375 0)
(3.02171 -0.0247049 0)
(3.05262 0.151036 0)
(2.71855 0.737628 0)
(1.32383 0.865506 0)
(0.987006 0.761368 0)
(0.97872 0.734412 0)
(0.992258 0.743834 0)
(1.02041 0.759948 0)
(1.06791 0.781942 0)
(1.13812 0.794673 0)
(3 2.87827e-17 0)
(3 2.85181e-15 0)
(3 6.16414e-15 0)
(3 1.32457e-13 0)
(3 4.95284e-13 0)
(3 6.98572e-12 0)
(3 3.27435e-11 0)
(3 4.84401e-10 0)
(3 2.69991e-09 0)
(3 3.32277e-08 0)
(3 2.19102e-07 0)
(2.99999 2.38958e-06 0)
(3.00011 1.89097e-05 0)
(2.99947 0.000181214 0)
(3.0043 0.00149833 0)
(2.98877 0.0137735 0)
(3.13889 0.103087 0)
(2.98419 0.510858 0)
(1.89719 0.930031 0)
(1.02595 0.801066 0)
(1.02557 0.767607 0)
(1.04042 0.771309 0)
(1.06599 0.775871 0)
(1.10391 0.783245 0)
(1.16061 0.786202 0)
(3 4.5713e-15 0)
(3 -1.13775e-14 0)
(3 1.63964e-14 0)
(3 3.13379e-14 0)
(3 1.97037e-12 0)
(3 1.6812e-11 0)
(3 3.81221e-12 0)
(3 5.46959e-10 0)
(3 -1.64969e-09 0)
(3 3.18543e-08 0)
(3 3.40313e-07 0)
(3 -3.95252e-07 0)
(3.00001 8.85537e-06 0)
(3.00004 1.10974e-05 0)
(3.00042 0.000251806 0)
(3.00344 0.0113383 0)
(3.03649 -0.138712 0)
(3.06938 0.307689 0)
(2.48966 1.00258 0)
(1.2107 0.883586 0)
(1.07776 0.832486 0)
(1.08038 0.791455 0)
(1.10275 0.786926 0)
(1.13858 0.786875 0)
(1.18664 0.784357 0)
(3 -3.25556e-17 0)
(3 1.02601e-16 0)
(3 1.43311e-15 0)
(3 2.34705e-14 0)
(3 1.94364e-13 0)
(3 1.90815e-12 0)
(3 1.34282e-11 0)
(3 1.28985e-10 0)
(3 9.43782e-10 0)
(3 8.36773e-09 0)
(3 7.05727e-08 0)
(3 5.5189e-07 0)
(3.00003 5.03319e-06 0)
(2.99999 3.71296e-05 0)
(2.99834 0.000361255 0)
(3.01393 0.00300984 0)
(2.95078 0.0247083 0)
(3.21854 0.191083 0)
(2.93186 0.757798 0)
(1.67715 0.949948 0)
(1.15345 0.858664 0)
(1.13399 0.807704 0)
(1.14853 0.799318 0)
(1.17683 0.792309 0)
(1.21634 0.787189 0)
(3 3.17587e-16 0)
(3 5.15529e-16 0)
(3 1.3255e-14 0)
(3 1.00154e-13 0)
(3 8.54796e-14 0)
(3 6.17974e-12 0)
(3 -1.85287e-11 0)
(3 2.20487e-10 0)
(3 1.5362e-09 0)
(3 -3.97907e-10 0)
(3 8.44931e-08 0)
(3 9.59484e-08 0)
(3 3.90489e-06 0)
(3.00001 4.35031e-05 0)
(3.00005 -2.05621e-05 0)
(3.00089 0.000568402 0)
(3.00469 0.0142481 0)
(3.06037 -0.314663 0)
(3.08191 0.554009 0)
(2.29686 1.06795 0)
(1.23072 0.903681 0)
(1.18097 0.861794 0)
(1.19035 0.816603 0)
(1.21205 0.804201 0)
(1.2456 0.79518 0)
(3 -3.74702e-17 0)
(3 1.15146e-16 0)
(3 1.10128e-15 0)
(3 9.19533e-15 0)
(3 5.80544e-14 0)
(3 1.63081e-13 0)
(3 3.75974e-12 0)
(3 2.69085e-11 0)
(3 2.68705e-10 0)
(3 1.88765e-09 0)
(3 1.1756e-08 0)
(3 1.22175e-07 0)
(3 1.06979e-06 0)
(3.00004 8.98368e-06 0)
(2.99997 5.7309e-05 0)
(2.99812 0.000599156 0)
(3.01541 0.00466413 0)
(2.92303 0.0374588 0)
(3.3007 0.321861 0)
(2.91703 0.97235 0)
(1.63546 0.982056 0)
(1.25514 0.898098 0)
(1.23826 0.834223 0)
(1.25306 0.82216 0)
(1.279 0.81028 0)
(3 -2.83276e-18 0)
(3 -1.76116e-17 0)
(3 -4.36145e-16 0)
(3 4.59763e-15 0)
(3 1.36055e-14 0)
(3 4.94519e-13 0)
(3 -1.05658e-12 0)
(3 2.23384e-11 0)
(3 1.92737e-10 0)
(3 8.9437e-10 0)
(3 -1.62508e-09 0)
(3 1.11953e-07 0)
(3 -7.32135e-09 0)
(3 6.3929e-06 0)
(3.00002 5.19444e-05 0)
(3.00008 -7.04696e-06 0)
(3.00129 0.000737938 0)
(3.0052 0.00989826 0)
(3.08604 -0.212308 0)
(3.12742 0.688526 0)
(2.29804 1.07067 0)
(1.3362 0.919246 0)
(1.28216 0.879485 0)
(1.2952 0.838868 0)
(1.31414 0.824684 0)
(3 1.53307e-16 0)
(3 4.77269e-16 0)
(3 4.77884e-16 0)
(3 1.08089e-15 0)
(3 1.2568e-14 0)
(3 7.49661e-14 0)
(3 7.20963e-13 0)
(3 3.34699e-14 0)
(3 5.34557e-11 0)
(3 3.09678e-10 0)
(3 3.06469e-09 0)
(3 2.3892e-08 0)
(3 2.05592e-07 0)
(3 1.59641e-06 0)
(3.00005 1.23057e-05 0)
(2.99996 7.8631e-05 0)
(2.99785 0.000830678 0)
(3.01647 0.00630505 0)
(2.94105 0.0511235 0)
(3.33037 0.393702 0)
(2.92648 1.03802 0)
(1.70042 0.994489 0)
(1.36132 0.936501 0)
(1.33541 0.867578 0)
(1.34875 0.851961 0)
(3 -3.63841e-16 0)
(3 1.12955e-16 0)
(3 -5.23606e-16 0)
(3 8.05276e-18 0)
(3 1.56714e-15 0)
(3 4.78918e-14 0)
(3 1.64681e-13 0)
(3 2.71051e-12 0)
(3 3.48536e-11 0)
(3 -9.43224e-11 0)
(3 2.83937e-09 0)
(3 7.52098e-09 0)
(3 1.38097e-07 0)
(3 -1.39695e-06 0)
(3 9.46219e-06 0)
(3.00002 6.2023e-05 0)
(3.00009 3.86476e-05 0)
(3.00157 0.000473401 0)
(3.00617 0.0139971 0)
(3.1086 -0.202489 0)
(3.16203 0.757024 0)
(2.34132 1.07577 0)
(1.44062 0.947204 0)
(1.37943 0.913464 0)
(1.38892 0.867834 0)
(3 -3.13466e-17 0)
(3 7.74332e-17 0)
(3 4.08454e-16 0)
(3 2.95601e-16 0)
(3 1.21178e-15 0)
(3 1.26001e-14 0)
(3 9.2597e-14 0)
(3 7.95643e-13 0)
(3 6.60829e-12 0)
(3 5.1994e-11 0)
(3 3.83539e-10 0)
(3 4.29831e-09 0)
(3 2.40714e-08 0)
(3 2.61945e-07 0)
(3 1.93947e-06 0)
(3.00005 1.52096e-05 0)
(2.99999 0.000100809 0)
(2.99775 0.000970715 0)
(3.01953 0.00716964 0)
(2.93557 0.0568283 0)
(3.35658 0.417923 0)
(2.96895 1.0643 0)
(1.80123 1.01789 0)
(1.4441 0.976865 0)
(1.41988 0.898756 0)
(3 3.99512e-17 0)
(3 1.90024e-16 0)
(3 -1.53633e-16 0)
(3 -2.25976e-16 0)
(3 9.73175e-17 0)
(3 3.71509e-15 0)
(3 3.77451e-14 0)
(3 4.85856e-13 0)
(3 5.08603e-14 0)
(3 3.38396e-11 0)
(3 2.62116e-11 0)
(3 3.68651e-09 0)
(3 -1.72418e-08 0)
(3 1.35744e-07 0)
(3 -1.51258e-06 0)
(3 1.09159e-05 0)
(3.00003 6.46244e-05 0)
(3.00008 5.53874e-05 0)
(3.00185 -0.00277626 0)
(3.00381 0.00967942 0)
(3.12982 -0.104104 0)
(3.24149 0.744688 0)
(2.46792 1.08051 0)
(1.54759 0.965026 0)
(1.47602 0.944694 0)
(3 -1.77177e-16 0)
(3 -3.67832e-16 0)
(3 -8.18425e-16 0)
(3 -1.17621e-15 0)
(3 -1.15968e-15 0)
(3 -5.34264e-16 0)
(3 1.36642e-14 0)
(3 6.69479e-14 0)
(3 6.79981e-13 0)
(3 7.47713e-12 0)
(3 5.41122e-11 0)
(3 4.64884e-10 0)
(3 3.07203e-09 0)
(3 2.532e-08 0)
(3 2.75413e-07 0)
(3 1.93677e-06 0)
(3.00002 -7.32932e-06 0)
(3.00005 0.000115247 0)
(2.99821 0.000997099 0)
(3.01537 0.00676579 0)
(2.955 0.0563436 0)
(3.34053 0.39229 0)
(3.0426 1.04604 0)
(1.95031 1.04224 0)
(1.55335 0.989946 0)
(3 5.13189e-17 0)
(3 5.24717e-17 0)
(3 5.23721e-17 0)
(3 1.52727e-16 0)
(3 -1.60729e-17 0)
(3 9.95777e-16 0)
(3 3.62358e-15 0)
(3 4.54923e-14 0)
(3 3.53376e-13 0)
(3 4.15003e-12 0)
(3 2.80486e-12 0)
(3 2.92502e-10 0)
(3 1.02898e-09 0)
(3 1.49792e-08 0)
(3 7.10098e-08 0)
(3 6.21257e-07 0)
(2.99999 5.62488e-06 0)
(3.00005 3.16e-05 0)
(2.99995 -5.74669e-05 0)
(3.00226 -0.0050047 0)
(3.00272 0.00965266 0)
(3.13111 -0.000732775 0)
(3.32126 0.658754 0)
(2.63462 1.0669 0)
(1.70667 0.970412 0)
(3 -1.97522e-33 0)
(3 -1.02638e-16 0)
(3 1.02638e-16 0)
(3 3.59232e-16 0)
(3 8.19552e-16 0)
(3 -4.28557e-16 0)
(3 2.36875e-15 0)
(3 1.98531e-14 0)
(3 1.33355e-13 0)
(3 1.72421e-12 0)
(3 -2.68592e-13 0)
(3 9.90924e-11 0)
(3 1.11176e-09 0)
(3 6.54219e-09 0)
(3 9.98062e-09 0)
(3 -7.06578e-08 0)
(3 5.56306e-07 0)
(3 1.23132e-05 0)
(3.0001 7.99915e-05 0)
(2.99879 0.000804528 0)
(3.00895 0.00555861 0)
(2.98284 0.0482824 0)
(3.31877 0.363791 0)
(3.12986 0.968608 0)
(2.18286 1.04768 0)
(3 -1.02638e-16 0)
(3 -2.65725e-16 0)
(3 -2.05278e-16 0)
(3 -3.07912e-16 0)
(3 -3.27242e-16 0)
(3 -3.32492e-16 0)
(3 4.59512e-17 0)
(3 4.51127e-15 0)
(3 7.37554e-14 0)
(3 3.90859e-13 0)
(3 5.2975e-12 0)
(3 3.43412e-11 0)
(3 5.65086e-11 0)
(3 6.67432e-10 0)
(3 3.38118e-09 0)
(3 3.53644e-08 0)
(3 2.35787e-07 0)
(3 -1.15618e-06 0)
(3.00001 1.59982e-05 0)
(3.00007 -0.000133068 0)
(3.00121 -9.88463e-05 0)
(3.00469 0.00860988 0)
(3.10606 0.0768236 0)
(3.46362 0.600264 0)
(2.91928 0.999935 0)
(3 -2.56595e-16 0)
(3 5.13189e-17 0)
(3 -3.59232e-16 0)
(3 -6.62814e-16 0)
(3 -4.31243e-16 0)
(3 -9.78046e-16 0)
(3 -1.38146e-15 0)
(3 1.86096e-15 0)
(3 1.45352e-14 0)
(3 -4.67266e-14 0)
(3 9.6226e-13 0)
(3 1.28049e-11 0)
(3 3.61933e-11 0)
(3 3.60237e-10 0)
(3 1.95975e-09 0)
(3 1.13472e-08 0)
(3 1.43295e-07 0)
(3 1.36221e-06 0)
(3.00001 1.0632e-05 0)
(3.00001 5.4008e-05 0)
(3 0.000757355 0)
(3.00214 -0.0059014 0)
(3.00645 0.0481136 0)
(3.26517 -0.306427 0)
(3.19826 0.9061 0)
(3 -6.04381e-17 0)
(3 1.53957e-16 0)
(3 2.56595e-16 0)
(3 2.05276e-16 0)
(3 2.04201e-16 0)
(3 2.1381e-16 0)
(3 2.7607e-16 0)
(3 1.2641e-15 0)
(3 3.85139e-15 0)
(3 4.36231e-14 0)
(3 2.96892e-13 0)
(3 2.5867e-12 0)
(3 1.34239e-11 0)
(3 1.35186e-10 0)
(3 8.05455e-10 0)
(3 7.17338e-10 0)
(3 3.54933e-08 0)
(3 1.14567e-07 0)
(3.00001 1.77259e-06 0)
(3 1.21862e-05 0)
(3.00008 -6.1773e-06 0)
(3.00056 0.00105979 0)
(2.99906 0.0073384 0)
(2.91466 0.0710262 0)
(3.4809 0.492675 0)
(3 5.13189e-17 0)
(3 3.84822e-17 0)
(3 2.05276e-16 0)
(3 2.46104e-16 0)
(3 5.13177e-16 0)
(3 7.69126e-16 0)
(3 9.02368e-16 0)
(3 8.96804e-16 0)
(3 2.29171e-15 0)
(3 7.7848e-15 0)
(3 1.12496e-13 0)
(3 4.07869e-13 0)
(3 5.27839e-12 0)
(3 1.28969e-11 0)
(3 3.65525e-10 0)
(3 1.22538e-09 0)
(3 1.45572e-08 0)
(3 1.07896e-07 0)
(3 1.04022e-06 0)
(3.00001 6.18024e-06 0)
(2.99999 2.13939e-06 0)
(2.99991 0.000416339 0)
(3.0036 0.00329075 0)
(2.99817 0.0024173 0)
(3.15029 0.0373158 0)
(3 1.53957e-16 0)
(3 1.53957e-16 0)
(3 8.53514e-18 0)
(3 2.05963e-16 0)
(3 2.04335e-16 0)
(3 3.57589e-16 0)
(3 5.56561e-16 0)
(3 6.58186e-16 0)
(3 1.08586e-15 0)
(3 2.19136e-15 0)
(3 3.46568e-14 0)
(3 1.0999e-13 0)
(3 9.1046e-13 0)
(3 4.11782e-12 0)
(3 8.21173e-11 0)
(3 3.64151e-10 0)
(3 -2.91048e-09 0)
(3 2.82683e-08 0)
(3 9.23105e-08 0)
(3 1.07968e-06 0)
(3 1.17639e-05 0)
(3.00007 -0.000145748 0)
(3.00021 0.00081011 0)
(3.00541 0.00520409 0)
(2.98172 0.0471903 0)
(3 -1.02638e-16 0)
(3 3.34776e-17 0)
(3 -1.96077e-16 0)
(3 3.04985e-16 0)
(3 6.36601e-17 0)
(3 2.50133e-16 0)
(3 2.18603e-16 0)
(3 4.66355e-16 0)
(3 7.63911e-16 0)
(3 1.01897e-15 0)
(3 1.26766e-14 0)
(3 5.71712e-14 0)
(3 -2.08784e-13 0)
(3 5.65786e-12 0)
(3 4.26268e-11 0)
(3 6.46948e-11 0)
(3 1.19498e-09 0)
(3 9.0105e-09 0)
(3 3.07764e-08 0)
(3 3.80606e-07 0)
(3 2.98327e-06 0)
(2.99996 2.94578e-05 0)
(3.00009 3.53891e-05 0)
(3.00081 0.00114963 0)
(3.00418 0.00384027 0)
(3 5.13189e-17 0)
(3 1.47276e-16 0)
(3 -4.39061e-17 0)
(3 1.54653e-16 0)
(3 1.47866e-16 0)
(3 1.54229e-16 0)
(3 8.98438e-17 0)
(3 8.18579e-17 0)
(3 7.81029e-18 0)
(3 -6.28623e-16 0)
(3 9.1885e-16 0)
(3 1.28323e-14 0)
(3 1.60991e-13 0)
(3 9.37832e-13 0)
(3 9.11828e-12 0)
(3 4.12088e-11 0)
(3 5.39416e-10 0)
(3 2.45626e-09 0)
(3 2.75168e-08 0)
(3 1.96606e-07 0)
(3 2.39773e-06 0)
(3 3.70716e-07 0)
(2.99991 4.47039e-05 0)
(3.00058 0.000123709 0)
(3.00073 0.00291987 0)
(3 1.18679e-16 0)
(3 2.99653e-16 0)
(3 6.10972e-16 0)
(3 -1.16541e-16 0)
(3 4.60809e-17 0)
(3 -4.54817e-16 0)
(3 -7.27356e-16 0)
(3 -8.52839e-16 0)
(3 -9.53534e-16 0)
(3 -1.28189e-15 0)
(3 -8.96682e-16 0)
(3 3.79267e-15 0)
(3 2.00039e-14 0)
(3 -7.4645e-14 0)
(3 2.87018e-12 0)
(3 4.37826e-12 0)
(3 1.22765e-10 0)
(3 5.14275e-10 0)
(3 6.87885e-09 0)
(3 3.4058e-08 0)
(3 3.11365e-07 0)
(3 2.18679e-06 0)
(3 -2.69179e-06 0)
(3.00006 3.73365e-05 0)
(3.00038 0.000884544 0)
(3 -5.13189e-17 0)
(3 -2.56595e-16 0)
(3 -2.56595e-16 0)
(3 -3.07913e-16 0)
(3 -2.56595e-16 0)
(3 -2.5293e-16 0)
(3 -2.60144e-16 0)
(3 -2.03325e-16 0)
(3 -1.31365e-16 0)
(3 1.08412e-16 0)
(3 2.30473e-16 0)
(3 1.93004e-15 0)
(3 1.23548e-14 0)
(3 5.14845e-14 0)
(3 6.87786e-13 0)
(3 4.74792e-12 0)
(3 3.14684e-11 0)
(3 7.16836e-11 0)
(3 2.3275e-09 0)
(3 1.20869e-08 0)
(3 1.30596e-07 0)
(3 5.40432e-07 0)
(3 3.47086e-06 0)
(3.00001 2.57451e-05 0)
(3.0001 0.000139125 0)
(3 2.0705e-17 0)
(3 -1.25859e-16 0)
(3 1.0264e-16 0)
(3 3.07912e-16 0)
(3 4.16889e-16 0)
(3 3.72539e-16 0)
(3 5.54287e-16 0)
(3 4.06911e-16 0)
(3 3.58849e-16 0)
(3 2.70062e-16 0)
(3 2.06319e-17 0)
(3 -5.59931e-16 0)
(3 1.69637e-15 0)
(3 2.10824e-14 0)
(3 1.6736e-13 0)
(3 -3.0217e-12 0)
(3 1.33275e-11 0)
(3 -3.69421e-11 0)
(3 3.99626e-10 0)
(3 4.3688e-09 0)
(3 1.32922e-08 0)
(3 3.69258e-08 0)
(3 7.33719e-07 0)
(3 5.91038e-06 0)
(3.00007 5.29315e-05 0)
(3 1.53957e-16 0)
(3 2.90643e-16 0)
(3 1.82139e-16 0)
(3 1.02638e-16 0)
(3 1.53957e-16 0)
(3 1.06946e-16 0)
(3 2.00187e-16 0)
(3 3.15721e-16 0)
(3 2.56139e-16 0)
(3 3.55174e-16 0)
(3 3.59118e-16 0)
(3 7.38108e-17 0)
(3 1.11286e-15 0)
(3 5.25429e-15 0)
(3 3.17192e-14 0)
(3 3.34788e-13 0)
(3 2.46771e-12 0)
(3 4.15214e-12 0)
(3 1.18167e-10 0)
(3 1.0632e-09 0)
(3 4.87771e-09 0)
(3 4.58688e-08 0)
(3 -2.33235e-07 0)
(3 1.80312e-06 0)
(3.00001 5.73887e-06 0)
(3 -1.02638e-16 0)
(3 -3.59232e-16 0)
(3 -3.77615e-16 0)
(3 -7.69784e-16 0)
(3 -7.69784e-16 0)
(3 -7.10913e-16 0)
(3 -6.23379e-16 0)
(3 -5.96527e-16 0)
(3 -6.35126e-16 0)
(3 -4.10551e-16 0)
(3 -3.59232e-16 0)
(3 -3.00724e-16 0)
(3 -4.49187e-16 0)
(3 1.12827e-15 0)
(3 5.11076e-15 0)
(3 5.98169e-14 0)
(3 7.98985e-13 0)
(3 2.01672e-12 0)
(3 2.8345e-11 0)
(3 3.04744e-10 0)
(3 1.10615e-09 0)
(3 3.28336e-09 0)
(3 7.42292e-08 0)
(3 2.37203e-07 0)
(3 3.52843e-06 0)
(3 -1.02638e-16 0)
(3 -1.53957e-16 0)
(3 -1.53957e-16 0)
(3 -5.13189e-17 0)
(3 -5.13189e-17 0)
(3 -1.02638e-16 0)
(3 -5.13189e-17 0)
(3 -5.64508e-16 0)
(3 -7.18465e-16 0)
(3 -8.15086e-16 0)
(3 -9.59074e-16 0)
(3 -9.77117e-16 0)
(3 -1.05251e-15 0)
(3 -9.01281e-16 0)
(3 -1.35937e-16 0)
(3 2.26287e-14 0)
(3 1.0976e-13 0)
(3 -1.69184e-13 0)
(3 8.77695e-12 0)
(3 2.93643e-11 0)
(3 3.54958e-10 0)
(3 2.33075e-09 0)
(3 -2.02689e-08 0)
(3 1.11005e-07 0)
(3 -6.0982e-07 0)
(3 5.13189e-17 0)
(3 -5.13189e-17 0)
(3 5.13189e-17 0)
(3 9.19145e-18 0)
(3 9.34464e-17 0)
(3 -1.02638e-16 0)
(3 -1.02638e-16 0)
(3 -1.02638e-16 0)
(3 -5.13189e-17 0)
(3 -2.56595e-16 0)
(3 -3.07913e-16 0)
(3 -3.59232e-16 0)
(3 -4.72845e-16 0)
(3 -1.72237e-16 0)
(3 -1.47777e-15 0)
(3 6.3202e-15 0)
(3 3.44867e-14 0)
(3 3.6591e-13 0)
(3 2.2252e-12 0)
(3 1.85915e-11 0)
(3 1.0705e-10 0)
(3 2.4667e-10 0)
(3 3.27871e-09 0)
(3 6.13697e-09 0)
(3 1.28816e-07 0)
(3 5.13189e-17 0)
(3 1.55253e-16 0)
(3 5.00227e-17 0)
(3 6.51061e-17 0)
(3 3.75317e-17 0)
(3 -2.56595e-16 0)
(3 -5.13189e-16 0)
(3 -6.67146e-16 0)
(3 -8.72421e-16 0)
(3 -8.72421e-16 0)
(3 -8.72421e-16 0)
(3 -8.76527e-16 0)
(3 -8.17268e-16 0)
(3 -8.48606e-16 0)
(3 -9.06302e-16 0)
(3 5.98799e-16 0)
(3 1.03274e-14 0)
(3 9.27387e-14 0)
(3 7.56629e-13 0)
(3 -1.82136e-12 0)
(3 2.51969e-11 0)
(3 2.23853e-10 0)
(3 -3.73414e-10 0)
(3 8.8071e-09 0)
(3 2.63486e-08 0)
(3 5.13189e-17 0)
(3 2.05276e-16 0)
(3 3.07913e-16 0)
(3 3.07913e-16 0)
(3 4.10551e-16 0)
(3 4.6187e-16 0)
(3 4.6187e-16 0)
(3 4.62109e-16 0)
(3 4.62225e-16 0)
(3 2.37987e-16 0)
(3 1.37619e-16 0)
(3 -3.41781e-16 0)
(3 -3.76911e-16 0)
(3 -8.93269e-16 0)
(3 -7.69698e-16 0)
(3 -4.12897e-16 0)
(3 -1.67017e-16 0)
(3 3.41679e-14 0)
(3 4.06521e-14 0)
(3 2.03619e-13 0)
(3 -1.02842e-12 0)
(3 -1.32207e-11 0)
(3 -5.1503e-10 0)
(3 3.40863e-09 0)
(3 -7.65779e-09 0)
(3 -5.13189e-17 0)
(3 -1.02638e-16 0)
(3 -3.07913e-16 0)
(3 -3.74676e-16 0)
(3 -4.49955e-16 0)
(3 -5.28839e-16 0)
(3 -2.92263e-16 0)
(3 -1.09732e-16 0)
(3 -5.13189e-17 0)
(3 -1.53957e-16 0)
(3 -2.05276e-16 0)
(3 -4.06446e-16 0)
(3 -5.5298e-16 0)
(3 -7.46269e-16 0)
(3 -8.70226e-16 0)
(3 -9.00384e-16 0)
(3 -7.51562e-16 0)
(3 -4.01691e-15 0)
(3 2.79778e-15 0)
(3 -7.00167e-13 0)
(3 -9.39159e-12 0)
(3 -4.5439e-11 0)
(3 -4.1488e-10 0)
(3 2.12607e-09 0)
(3 -2.62521e-09 0)
(3 -1.02638e-16 0)
(3 -2.56595e-16 0)
(3 -5.64508e-16 0)
(3 -7.18465e-16 0)
(3 -8.72421e-16 0)
(3 -9.75059e-16 0)
(3 -9.11147e-16 0)
(3 -1.15294e-15 0)
(3 -1.10509e-15 0)
(3 -9.2374e-16 0)
(3 -6.15827e-16 0)
(3 -5.17792e-16 0)
(3 -3.78371e-18 0)
(3 3.69301e-16 0)
(3 8.96614e-17 0)
(3 2.22268e-16 0)
(3 4.80485e-16 0)
(3 -4.69748e-15 0)
(3 5.34359e-14 0)
(3 -1.89129e-12 0)
(3 2.82203e-12 0)
(3 6.18065e-11 0)
(3 1.18599e-10 0)
(3 -5.5224e-12 0)
(3 -3.25851e-10 0)
(1.18044 1.06717 0)
(0.544913 0.63185 0)
(-0.585671 0.0312228 0)
(-0.427922 -0.168504 0)
(-0.577254 -0.161869 0)
(-0.454884 -0.0796189 0)
(-0.679963 0.0837824 0)
(-0.983024 0.139296 0)
(-1.15998 0.136866 0)
(-1.23667 0.092419 0)
(-1.25664 0.0577384 0)
(-1.25022 0.0266585 0)
(-1.24743 0.0265665 0)
(-1.2696 0.016728 0)
(-1.34414 -0.00197115 0)
(-1.40342 -0.0196289 0)
(-1.44147 -0.0195431 0)
(-1.45856 -0.0160034 0)
(-1.46191 -0.0140994 0)
(-1.45778 -0.0115993 0)
(-1.45585 -0.0105934 0)
(-1.4545 -0.00968596 0)
(-1.45798 -0.00668415 0)
(-1.46153 -0.00629374 0)
(-1.46505 -0.00353323 0)
(-1.47308 -0.00152851 0)
(-1.47758 0.00228091 0)
(-1.47985 0.00289194 0)
(-1.48106 0.00230574 0)
(-1.47879 0.00202635 0)
(-1.46127 0.00150521 0)
(-1.44572 0.00423116 0)
(-1.3998 0.00523954 0)
(-1.34762 0.00239688 0)
(-1.2881 -0.00391873 0)
(-1.22711 -0.0159068 0)
(-1.14647 -0.02683 0)
(-1.06239 -0.0371051 0)
(-0.978371 -0.0427291 0)
(-0.893408 -0.0328448 0)
(-0.796193 -0.0314475 0)
(-0.704354 -0.0194556 0)
(-0.615568 -0.0014909 0)
(-0.524561 0.00188305 0)
(-0.441765 0.011195 0)
(-0.369533 0.00887306 0)
(-0.271275 -0.0172527 0)
(-0.175706 -0.0217693 0)
(-0.0860782 -0.0290166 0)
(0.00749112 -0.0295993 0)
(0.0916793 -0.0288511 0)
(0.16816 -0.0270791 0)
(0.24017 -0.0268555 0)
(0.307587 -0.0276061 0)
(0.370856 -0.0279303 0)
(0.429512 -0.0272913 0)
(0.484085 -0.0257206 0)
(0.535161 -0.0239141 0)
(0.582871 -0.0224281 0)
(0.62745 -0.0211538 0)
(0.669251 -0.0198466 0)
(0.708488 -0.0184387 0)
(0.745716 -0.0172284 0)
(0.781016 -0.0160384 0)
(0.814683 -0.0149028 0)
(0.847054 -0.0139261 0)
(0.877863 -0.012902 0)
(0.907186 -0.0118418 0)
(0.935074 -0.0109637 0)
(0.961919 -0.0102976 0)
(0.987699 -0.00968273 0)
(1.01274 -0.00909922 0)
(1.03687 -0.00858177 0)
(1.06048 -0.00805305 0)
(1.08308 -0.00756753 0)
(1.10523 -0.00705134 0)
(1.12589 -0.00653641 0)
(1.14611 -0.0060025 0)
(1.16494 -0.00550354 0)
(1.18337 -0.00501714 0)
(1.20059 -0.0045977 0)
(1.21749 -0.00419158 0)
(1.23347 -0.0038712 0)
(1.24926 -0.00355211 0)
(1.26436 -0.00331564 0)
(1.2793 -0.00304006 0)
(1.29358 -0.00288583 0)
(1.30772 -0.00266018 0)
(1.32125 -0.00260782 0)
(1.33467 -0.00243171 0)
(1.34784 -0.00242915 0)
(1.36092 -0.00224774 0)
(1.37395 -0.00225208 0)
(1.38692 -0.00200718 0)
(1.40006 -0.00206841 0)
(1.41321 -0.00174759 0)
(1.4269 -0.00197054 0)
(1.44066 -0.00142163 0)
(1.45543 -0.00151879 0)
(1.47236 0.000298016 0)
(1.22243 0.982241 0)
(1.16822 0.763988 0)
(0.724324 0.580824 0)
(0.637302 0.285234 0)
(0.115037 0.165138 0)
(-0.143455 0.13263 0)
(-0.355655 0.221205 0)
(-0.753302 0.142949 0)
(-0.872486 0.0340672 0)
(-0.915014 -0.00934331 0)
(-0.853716 -0.0437525 0)
(-0.824026 -0.0361439 0)
(-0.816998 -0.0276176 0)
(-0.872657 -0.0140843 0)
(-0.94902 -0.00697407 0)
(-1.01327 0.0348607 0)
(-1.0523 0.053246 0)
(-1.06509 0.0463014 0)
(-1.06275 0.0190458 0)
(-1.05784 0.014253 0)
(-1.05404 0.00767946 0)
(-1.05258 0.00852697 0)
(-1.05526 0.00707811 0)
(-1.05933 0.00731466 0)
(-1.06253 0.000557788 0)
(-1.07509 0.00436573 0)
(-1.08512 -0.00204722 0)
(-1.09192 0.000782941 0)
(-1.09408 -0.000260569 0)
(-1.09153 0.000439929 0)
(-1.0679 -0.00316829 0)
(-1.0486 -0.00494981 0)
(-1.00684 -0.0106654 0)
(-0.94801 -0.0168773 0)
(-0.88364 -0.0228541 0)
(-0.812401 -0.0191654 0)
(-0.719393 -0.0205135 0)
(-0.620209 -0.0284357 0)
(-0.526205 -0.0295308 0)
(-0.44411 -0.039935 0)
(-0.299493 -0.0752525 0)
(-0.179249 -0.0883803 0)
(-0.0647132 -0.10985 0)
(0.0981202 -0.124952 0)
(0.224527 -0.125873 0)
(0.375055 -0.140416 0)
(0.492865 -0.136583 0)
(0.577513 -0.128873 0)
(0.655511 -0.121184 0)
(0.724124 -0.117812 0)
(0.779492 -0.105153 0)
(0.83096 -0.0960536 0)
(0.879636 -0.0896329 0)
(0.920151 -0.0807095 0)
(0.958977 -0.0730234 0)
(0.993079 -0.065496 0)
(1.02459 -0.0598218 0)
(1.05386 -0.0549169 0)
(1.08151 -0.0499143 0)
(1.10789 -0.0453365 0)
(1.13289 -0.041351 0)
(1.1568 -0.0379217 0)
(1.18014 -0.0349425 0)
(1.20225 -0.0321026 0)
(1.22363 -0.0297091 0)
(1.24471 -0.027415 0)
(1.26464 -0.0251264 0)
(1.28384 -0.0229401 0)
(1.30246 -0.0210771 0)
(1.32049 -0.0194621 0)
(1.3379 -0.0181584 0)
(1.35487 -0.0168775 0)
(1.37152 -0.0158562 0)
(1.388 -0.014859 0)
(1.40391 -0.0138884 0)
(1.41962 -0.0127551 0)
(1.43451 -0.0117068 0)
(1.44932 -0.0106121 0)
(1.46318 -0.0097042 0)
(1.47691 -0.00874516 0)
(1.48964 -0.0079694 0)
(1.50221 -0.00714615 0)
(1.51411 -0.00648884 0)
(1.52592 -0.00575364 0)
(1.53733 -0.00514524 0)
(1.54869 -0.00443963 0)
(1.55957 -0.00385136 0)
(1.57039 -0.00317643 0)