/*--------------------------------*- C++ -*----------------------------------*\
| =========                 |                                                 |
| \\      /  F ield         | OpenFOAM: The Open Source CFD Toolbox           |
|  \\    /   O peration     | Version:  v2106                                 |
|   \\  /    A nd           | Website:  www.openfoam.com                      |
|    \\/     M anipulation  |                                                 |
\*---------------------------------------------------------------------------*/
FoamFile
{
    version     2.0;
    format      ascii;
    arch        "LSB;label=32;scalar=64";
    class       volScalarField;
    location    "13";
    object      Mo;
}
// * * * * * * * * * * * * * * * * * * * * * * * * * * * * * * * * * * * * * //

dimensions      [0 0 0 0 0 0 0];

internalField   nonuniform List<scalar> 
5250
(
3.01265
3.01265
3.01265
3.01265
3.01265
3.01265
3.01265
3.01264
3.01264
3.01235
3.01097
2.99099
2.88943
2.47609
1.48205
0.427835
0.332089
0.345044
0.30743
0.262457
0.228251
0.181575
0.134904
0.0857439
0.0400422
3.01265
3.01265
3.01265
3.01265
3.01265
3.01265
3.01265
3.01264
3.01264
3.01236
3.01101
2.99162
2.89201
2.48493
1.49235
0.439875
0.326528
0.346645
0.309268
0.263827
0.230676
0.186178
0.144542
0.101983
0.0746717
3.01265
3.01265
3.01265
3.01265
3.01265
3.01265
3.01265
3.01264
3.01264
3.01236
3.01117
2.9922
2.89894
2.50537
1.51832
0.47616
0.317952
0.350455
0.311385
0.265695
0.237197
0.199103
0.164201
0.132305
0.117198
3.01265
3.01265
3.01265
3.01265
3.01265
3.01265
3.01265
3.01265
3.01263
3.01243
3.0108
2.99536
2.89836
2.53703
1.55855
0.528239
0.302071
0.35417
0.31404
0.272108
0.24957
0.217996
0.191411
0.17005
0.160935
3.01265
3.01265
3.01265
3.01265
3.01265
3.01265
3.01265
3.01265
3.01263
3.01247
3.01108
2.99885
2.91069
2.58512
1.65169
0.605197
0.282904
0.358123
0.316697
0.281319
0.264455
0.241062
0.222731
0.210261
0.207731
3.01265
3.01265
3.01265
3.01265
3.01265
3.01265
3.01265
3.01265
3.01263
3.01251
3.01134
3.00163
2.9267
2.64678
1.80942
0.723524
0.273093
0.37161
0.325876
0.292828
0.283717
0.268966
0.25986
0.254971
0.257329
3.01265
3.01265
3.01265
3.01265
3.01265
3.01265
3.01265
3.01265
3.01264
3.01255
3.01158
3.00464
2.94357
2.71117
1.98663
0.901972
0.292305
0.400182
0.353535
0.314539
0.310245
0.300852
0.301254
0.301988
0.315086
3.01265
3.01265
3.01265
3.01265
3.01265
3.01265
3.01265
3.01265
3.01264
3.01257
3.01196
3.00687
2.95812
2.76543
2.10023
1.12499
0.355845
0.441891
0.394913
0.348212
0.344421
0.340292
0.347087
0.360803
0.386396
3.01265
3.01265
3.01265
3.01265
3.01265
3.01265
3.01265
3.01265
3.01264
3.01259
3.01219
3.00852
2.96927
2.80881
2.20636
1.27541
0.46085
0.500369
0.458183
0.40379
0.388136
0.391013
0.40295
0.422244
0.481073
3.01265
3.01265
3.01265
3.01265
3.01265
3.01265
3.01265
3.01265
3.01264
3.01263
3.01218
3.00993
2.97879
2.84665
2.3139
1.37172
0.550658
0.558768
0.527108
0.481783
0.448803
0.451559
0.469222
0.511356
0.649893
3.01265
3.01265
3.01265
3.01265
3.01265
3.01265
3.01265
3.01265
3.01264
3.01264
3.01228
3.01086
2.98651
2.88279
2.43207
1.48603
0.639935
0.566306
0.5731
0.557939
0.523906
0.528154
0.553006
0.640403
0.871043
3.01265
3.01265
3.01265
3.01265
3.01265
3.01265
3.01265
3.01265
3.01265
3.01262
3.01243
3.01054
2.99619
2.90271
2.54968
1.62565
0.763121
0.555073
0.593589
0.62307
0.606193
0.606988
0.635733
0.750079
0.922021
3.01265
3.01265
3.01265
3.01265
3.01265
3.01265
3.01265
3.01265
3.01265
3.01264
3.01253
3.01151
3.004
2.9344
2.67823
1.8647
0.962389
0.53243
0.594766
0.636702
0.669029
0.682021
0.708849
0.802461
0.936793
3.01265
3.01265
3.01265
3.01265
3.01265
3.01265
3.01265
3.01265
3.01265
3.01265
3.01256
3.01238
3.00704
2.96251
2.7826
2.16979
1.28873
0.572891
0.616749
0.648009
0.683362
0.730957
0.771253
0.844633
0.956958
3.01265
3.01265
3.01265
3.01265
3.01265
3.01265
3.01265
3.01265
3.01265
3.01264
3.01262
3.01216
3.00973
2.97736
2.84035
2.32196
1.47211
0.712699
0.667337
0.675484
0.701769
0.749918
0.807054
0.883389
0.975778
3.01265
3.01265
3.01265
3.01265
3.01265
3.01265
3.01265
3.01265
3.01265
3.01264
3.01264
3.01234
3.01101
2.99052
2.89454
2.4769
1.61814
0.889361
0.724867
0.723763
0.736392
0.774123
0.829431
0.903668
0.989543
3.01265
3.01265
3.01265
3.01265
3.01265
3.01265
3.01265
3.01265
3.01265
3.01265
3.01263
3.0125
3.01135
3.00122
2.92777
2.64502
1.80079
1.13426
0.742405
0.765296
0.779337
0.804392
0.848253
0.911866
0.989959
3.01265
3.01265
3.01265
3.01265
3.01265
3.01265
3.01265
3.01265
3.01265
3.01265
3.01264
3.01262
3.01178
3.00863
2.95674
2.80661
2.22491
1.45293
0.810086
0.802241
0.812769
0.833593
0.869052
0.922566
0.99103
3.01265
3.01265
3.01265
3.01265
3.01265
3.01265
3.01265
3.01265
3.01265
3.01265
3.01264
3.01261
3.01228
3.00972
2.98602
2.86137
2.4408
1.66442
0.991465
0.845972
0.852557
0.868205
0.896532
0.939737
0.997879
3.01265
3.01265
3.01265
3.01265
3.01265
3.01265
3.01265
3.01265
3.01265
3.01265
3.01264
3.0126
3.01259
3.01028
3.00951
2.89076
2.67232
1.87733
1.26914
0.886678
0.896537
0.908006
0.929286
0.962756
1.0097
3.01265
3.01265
3.01265
3.01265
3.01265
3.01265
3.01265
3.01265
3.01265
3.01265
3.01265
3.01264
3.01258
3.01199
3.00777
2.96915
2.80772
2.25789
1.56944
0.981145
0.934273
0.938677
0.956716
0.986245
1.02611
3.01265
3.01265
3.01265
3.01265
3.01265
3.01265
3.01265
3.01265
3.01265
3.01265
3.01265
3.01264
3.01259
3.01263
3.00892
3.01064
2.81979
2.58178
1.84423
1.21478
0.985254
0.979222
0.993495
1.01643
1.04884
3.01265
3.01265
3.01265
3.01265
3.01265
3.01265
3.01265
3.01265
3.01265
3.01265
3.01265
3.01265
3.01263
3.01253
3.01162
3.00451
2.9493
2.73884
2.03076
1.55969
1.02992
1.01396
1.02531
1.04372
1.07184
3.01265
3.01265
3.01265
3.01265
3.01265
3.01265
3.01265
3.01265
3.01265
3.01265
3.01265
3.01265
3.01264
3.01256
3.01261
3.00725
3.01525
2.77388
2.50247
1.84061
1.23215
1.07379
1.063
1.07736
1.09974
3.01265
3.01265
3.01265
3.01265
3.01265
3.01265
3.01265
3.01265
3.01265
3.01265
3.01265
3.01265
3.01265
3.01263
3.01249
3.01122
3.00229
2.9327
2.71737
1.99184
1.54004
1.11703
1.09812
1.1079
1.12591
3.01265
3.01265
3.01265
3.01265
3.01265
3.01265
3.01265
3.01265
3.01265
3.01265
3.01265
3.01265
3.01265
3.01263
3.01263
3.01156
3.007
2.9989
2.74561
2.49093
1.85618
1.28709
1.15919
1.1436
1.15851
3.01265
3.01265
3.01265
3.01265
3.01265
3.01265
3.01265
3.01265
3.01265
3.01265
3.01265
3.01265
3.01265
3.01265
3.01262
3.01244
3.01099
3.00096
2.92338
2.71312
2.01336
1.57519
1.19962
1.17961
1.18764
3.01265
3.01265
3.01265
3.01265
3.01265
3.01265
3.01265
3.01265
3.01265
3.01265
3.01265
3.01265
3.01265
3.01265
3.01263
3.01261
3.01147
3.00541
2.99928
2.74424
2.49066
1.90241
1.35659
1.24136
1.22193
3.01265
3.01265
3.01265
3.01265
3.01265
3.01265
3.01265
3.01265
3.01265
3.01265
3.01265
3.01265
3.01265
3.01265
3.01265
3.01262
3.01243
3.01098
3.00079
2.92476
2.71135
2.07505
1.65816
1.27589
1.25675
3.01265
3.01265
3.01265
3.01265
3.01265
3.01265
3.01265
3.01265
3.01265
3.01265
3.01265
3.01265
3.01265
3.01265
3.01265
3.01264
3.01261
3.01175
3.00704
3.00605
2.79019
2.57888
1.97096
1.44879
1.29895
3.01265
3.01265
3.01265
3.01265
3.01265
3.01265
3.01265
3.01265
3.01265
3.01265
3.01265
3.01265
3.01265
3.01265
3.01265
3.01265
3.01262
3.01252
3.01117
3.00476
2.93132
2.7405
2.16426
1.79185
1.34265
3.01265
3.01265
3.01265
3.01265
3.01265
3.01265
3.01265
3.01265
3.01265
3.01265
3.01265
3.01265
3.01265
3.01265
3.01265
3.01265
3.01264
3.01256
3.01265
3.00908
3.0114
2.82715
2.61915
2.04719
1.55883
3.01265
3.01265
3.01265
3.01265
3.01265
3.01265
3.01265
3.01265
3.01265
3.01265
3.01265
3.01265
3.01265
3.01265
3.01265
3.01265
3.01265
3.01263
3.01257
3.01146
3.00685
2.94945
2.783
2.29201
1.89098
3.01265
3.01265
3.01265
3.01265
3.01265
3.01265
3.01265
3.01265
3.01265
3.01265
3.01265
3.01265
3.01265
3.01265
3.01265
3.01265
3.01265
3.01265
3.01261
3.01252
3.01022
3.005
2.87568
2.71655
2.1539
3.01265
3.01265
3.01265
3.01265
3.01265
3.01265
3.01265
3.01265
3.01265
3.01265
3.01265
3.01265
3.01265
3.01265
3.01265
3.01265
3.01265
3.01265
3.01264
3.01254
3.01185
3.0066
2.96775
2.82766
2.54377
3.01265
3.01265
3.01265
3.01265
3.01265
3.01265
3.01265
3.01265
3.01265
3.01265
3.01265
3.01265
3.01265
3.01265
3.01265
3.01265
3.01265
3.01265
3.01265
3.01263
3.01249
3.0114
3.00474
2.93596
2.78961
3.01265
3.01265
3.01265
3.01265
3.01265
3.01265
3.01265
3.01265
3.01265
3.01265
3.01265
3.01265
3.01265
3.01265
3.01265
3.01265
3.01265
3.01265
3.01265
3.01266
3.01276
3.01449
3.01183
3.01586
2.8616
3.01265
3.01265
3.01265
3.01265
3.01265
3.01265
3.01265
3.01265
3.01265
3.01265
3.01265
3.01265
3.01265
3.01265
3.01265
3.01265
3.01265
3.01265
3.01265
3.01265
3.01263
3.01264
3.01161
3.00874
2.96268
3.01265
3.01265
3.01265
3.01265
3.01265
3.01265
3.01265
3.01265
3.01265
3.01265
3.01265
3.01265
3.01265
3.01265
3.01265
3.01265
3.01265
3.01265
3.01265
3.01265
3.01266
3.01268
3.01263
3.0115
3.00654
3.01265
3.01265
3.01265
3.01265
3.01265
3.01265
3.01265
3.01265
3.01265
3.01265
3.01265
3.01265
3.01265
3.01265
3.01265
3.01265
3.01265
3.01265
3.01265
3.01265
3.01265
3.01265
3.01258
3.01252
3.00939
3.01265
3.01265
3.01265
3.01265
3.01265
3.01265
3.01265
3.01265
3.01265
3.01265
3.01265
3.01265
3.01265
3.01265
3.01265
3.01265
3.01265
3.01265
3.01265
3.01265
3.01265
3.01265
3.01264
3.01257
3.01207
3.01265
3.01265
3.01265
3.01265
3.01265
3.01265
3.01265
3.01265
3.01265
3.01265
3.01265
3.01265
3.01265
3.01265
3.01265
3.01265
3.01265
3.01265
3.01265
3.01265
3.01265
3.01265
3.01265
3.01266
3.01244
3.01265
3.01265
3.01265
3.01265
3.01265
3.01265
3.01265
3.01265
3.01265
3.01265
3.01265
3.01265
3.01265
3.01265
3.01265
3.01265
3.01265
3.01265
3.01265
3.01265
3.01265
3.01265
3.01265
3.01264
3.01261
3.01265
3.01265
3.01265
3.01265
3.01265
3.01265
3.01265
3.01265
3.01265
3.01265
3.01265
3.01265
3.01265
3.01265
3.01265
3.01265
3.01265
3.01265
3.01265
3.01265
3.01265
3.01265
3.01265
3.01265
3.01264
3.01265
3.01265
3.01265
3.01265
3.01265
3.01265
3.01265
3.01265
3.01265
3.01265
3.01265
3.01265
3.01265
3.01265
3.01265
3.01265
3.01265
3.01265
3.01265
3.01265
3.01265
3.01265
3.01265
3.01265
3.01265
3.01265
3.01265
3.01265
3.01265
3.01265
3.01265
3.01265
3.01265
3.01265
3.01265
3.01265
3.01265
3.01265
3.01265
3.01265
3.01265
3.01265
3.01265
3.01265
3.01265
3.01265
3.01265
3.01265
3.01265
3.01265
3.01265
3.01265
3.01265
3.01265
3.01265
3.01265
3.01265
3.01265
3.01265
3.01265
3.01265
3.01265
3.01265
3.01265
3.01265
3.01265
3.01265
3.01265
3.01265
3.01265
3.01265
3.01265
3.01265
3.01265
3.01265
3.01265
3.01265
3.01265
3.01265
3.01265
3.01265
3.01265
3.01265
3.01265
3.01265
3.01265
3.01265
3.01265
3.01265
3.01265
3.01265
3.01265
3.01265
3.01265
3.01265
3.01265
3.01265
3.01265
3.01265
3.01265
3.01265
3.01265
3.01265
3.01265
3.01265
3.01265
3.01265
3.01265
3.01265
3.01265
3.01265
3.01265
3.01265
3.01265
3.01265
3.01265
3.01265
3.01265
3.01265
3.01265
3.01265
3.01265
3.01265
3.01265
3.01265
3.01265
3.01265
3.01265
3.01265
3.01265
3.01265
3.01265
3.01265
3.01265
3.01265
3.01265
3.01265
3.01265
3.01265
3.01265
3.01265
3.01265
3.01265
3.01265
3.01265
3.01265
3.01265
3.01265
3.01265
3.01265
1.13254
0.563773
0.35242
0.277457
0.377286
0.286825
0.411514
0.603853
0.741617
0.801572
0.813931
0.806273
0.803261
0.811445
0.864407
0.922922
0.966466
0.986745
0.990888
0.983983
0.978276
0.9751
0.974117
0.974423
0.978326
0.981836
0.984945
0.986815
0.987643
0.986991
0.982112
0.965235
0.947928
0.907541
0.858304
0.802474
0.748328
0.687853
0.621665
0.561931
0.506865
0.447761
0.386087
0.325556
0.266537
0.217996
0.18083
0.12315
0.0701022
0.0299987
0.0400779
0.0776989
0.122087
0.163519
0.203742
0.241465
0.277313
0.312234
0.345399
0.376007
0.404737
0.432327
0.458924
0.484296
0.508252
0.531088
0.552982
0.574056
0.594286
0.613655
0.632196
0.650206
0.667701
0.684934
0.701578
0.717778
0.733133
0.748158
0.762514
0.77668
0.790296
0.80374
0.816602
0.829256
0.841324
0.853181
0.86452
0.875651
0.886243
0.896652
0.906475
0.916171
0.925245
0.934216
0.942796
0.951346
0.960128
0.969701
0.977818
0.985777
1.10528
0.937171
0.606404
0.451559
0.146876
0.114687
0.240894
0.446347
0.531338
0.567825
0.53073
0.505873
0.499617
0.530849
0.584572
0.639744
0.67573
0.688759
0.685466
0.677806
0.672232
0.668884
0.668174
0.668383
0.672893
0.676956
0.68341
0.687505
0.690018
0.688934
0.682714
0.663467
0.643361
0.610303
0.560331
0.506832
0.455198
0.395518
0.322608
0.266895
0.21568
0.145105
0.0911373
0.0706131
0.124442
0.189606
0.267296
0.333986
0.380381
0.426258
0.465311
0.497476
0.530496
0.559992
0.587626
0.612985
0.636353
0.659976
0.682994
0.704329
0.724416
0.743733
0.762648
0.781178
0.799307
0.81651
0.833164
0.849441
0.865346
0.880595
0.895427
0.909649
0.923649
0.937351
0.950733
0.963889
0.976454
0.988769
1.00057
1.01217
1.02331
1.03424
1.04471
1.05497
1.06485
1.07457
1.08404
1.0934
1.10256
1.11156
1.12029
1.12879
1.13688
1.14471
1.15218
1.15964
1.16729
1.1759
1.18321
1.19055
1.06071
1.07276
0.969927
0.831467
0.602273
0.431219
0.347688
0.399832
0.356758
0.266125
0.159232
0.0501667
0.0293615
0.104378
0.16289
0.311169
0.370845
0.405848
0.403609
0.388965
0.377954
0.371971
0.374261
0.375951
0.385137
0.391903
0.398379
0.397805
0.398764
0.397907
0.397387
0.382063
0.3663
0.330181
0.274557
0.215313
0.160047
0.11403
0.122323
0.180368
0.308592
0.404244
0.485264
0.552029
0.599433
0.63194
0.665326
0.692432
0.710883
0.731368
0.750436
0.766691
0.783643
0.801381
0.819111
0.83602
0.851668
0.8677
0.88421
0.900963
0.916527
0.931626
0.946404
0.960744
0.975039
0.98919
1.003
1.01648
1.02967
1.04255
1.05525
1.06766
1.07986
1.09179
1.10345
1.11471
1.12546
1.136
1.14624
1.15635
1.16621
1.17596
1.18544
1.19473
1.20374
1.21251
1.22108
1.22941
1.2376
1.24552
1.25335
1.26098
1.26839
1.27546
1.2823
1.28916
1.2962
1.30434
1.31153
1.31918
1.05787
1.14659
1.17977
1.12628
0.992738
0.838226
0.666472
0.644767
0.633735
0.590036
0.51113
0.407543
0.301976
0.27315
0.262933
0.289234
0.259966
0.20761
0.157232
0.0890535
0.0470273
0.00552838
0.0314049
0.0569557
0.0895923
0.105625
0.145542
0.152158
0.172167
0.173246
0.166368
0.145791
0.121268
0.0969206
0.103007
0.175607
0.324754
0.474218
0.604657
0.67163
0.741416
0.788911
0.822777
0.846762
0.868262
0.879089
0.895093
0.909796
0.92169
0.930084
0.941142
0.950921
0.959063
0.968529
0.979701
0.990929
1.00198
1.01308
1.02458
1.03663
1.0482
1.05973
1.07104
1.08213
1.0934
1.10442
1.11542
1.12647
1.1376
1.1488
1.16
1.17099
1.18176
1.19225
1.20266
1.2128
1.22267
1.23227
1.2418
1.25109
1.26027
1.26913
1.27785
1.28616
1.29441
1.3024
1.31041
1.31816
1.32588
1.33329
1.34066
1.34792
1.35499
1.36167
1.36817
1.3747
1.38142
1.3891
1.39656
1.40464
1.07847
1.16263
1.2245
1.27048
1.21635
1.13429
1.04976
0.976332
0.971415
0.919763
0.832225
0.7283
0.617912
0.556535
0.505796
0.500999
0.497491
0.479615
0.443035
0.38872
0.321779
0.273815
0.221895
0.19438
0.1581
0.14347
0.121475
0.102452
0.0794146
0.0502255
0.0732637
0.109458
0.194381
0.32084
0.467091
0.627229
0.761102
0.876689
0.944032
0.987474
1.02023
1.04218
1.05523
1.06664
1.07506
1.0777
1.07874
1.08163
1.08311
1.08264
1.08443
1.08491
1.08403
1.08803
1.093
1.09804
1.10338
1.10952
1.11695
1.12484
1.13265
1.14042
1.14786
1.15583
1.16466
1.17377
1.18317
1.19277
1.20255
1.21218
1.22179
1.23141
1.24105
1.25079
1.26042
1.26987
1.27926
1.28837
1.29725
1.30588
1.3144
1.32284
1.33124
1.33945
1.34756
1.35541
1.3632
1.3706
1.37793
1.38489
1.39176
1.39862
1.40542
1.41193
1.41838
1.42491
1.43171
1.43942
1.44745
1.45619
1.09036
1.17187
1.2371
1.29552
1.31893
1.29368
1.25828
1.24464
1.26031
1.25535
1.19092
1.10409
0.999981
0.912389
0.843591
0.819294
0.79541
0.761155
0.713177
0.656952
0.592633
0.540343
0.481841
0.441399
0.391059
0.361748
0.318599
0.302005
0.266053
0.255585
0.277935
0.34778
0.467423
0.640254
0.81771
0.964708
1.06128
1.15252
1.20798
1.24825
1.26311
1.26623
1.26293
1.25426
1.24402
1.22905
1.2104
1.20298
1.19432
1.18552
1.17877
1.17081
1.16197
1.16039
1.16093
1.16087
1.16358
1.16798
1.17249
1.17688
1.18081
1.18536
1.19095
1.19767
1.20514
1.21295
1.2212
1.22969
1.23834
1.24686
1.25557
1.26434
1.27317
1.28215
1.29133
1.30046
1.30922
1.31773
1.32612
1.33455
1.34305
1.3514
1.35963
1.36776
1.37567
1.38316
1.3904
1.39741
1.40439
1.41128
1.41818
1.42512
1.43193
1.43867
1.44519
1.45177
1.45861
1.46619
1.47464
1.48368
1.08316
1.16889
1.23879
1.29254
1.34506
1.35276
1.35667
1.36465
1.38055
1.40512
1.41982
1.37777
1.32144
1.25887
1.20107
1.14692
1.12743
1.09668
1.05079
0.992229
0.923871
0.857028
0.787181
0.735202
0.674951
0.634283
0.578286
0.544969
0.491568
0.468139
0.500401
0.599814
0.755232
0.933486
1.08083
1.19982
1.29451
1.36589
1.41606
1.45184
1.4649
1.46318
1.45273
1.43263
1.40125
1.36038
1.31823
1.28115
1.24328
1.24234
1.23796
1.23028
1.21976
1.20902
1.19553
1.19746
1.20102
1.20462
1.20778
1.20797
1.20912
1.21216
1.21706
1.22267
1.22927
1.23628
1.24354
1.25088
1.25849
1.26657
1.27477
1.28302
1.29157
1.29979
1.30793
1.31613
1.32443
1.3329
1.34137
1.3498
1.35824
1.36655
1.37469
1.38246
1.39
1.39716
1.40421
1.41126
1.41824
1.42521
1.43216
1.43912
1.44599
1.45288
1.45946
1.46611
1.47302
1.48056
1.48941
1.49878
1.06928
1.15512
1.23161
1.2868
1.33876
1.36714
1.39664
1.41357
1.43938
1.47004
1.50038
1.52223
1.49368
1.46332
1.42732
1.39772
1.39243
1.38818
1.36459
1.3223
1.26381
1.20002
1.12766
1.06691
1.00008
0.946326
0.880919
0.830815
0.764199
0.715647
0.7517
0.852374
0.991706
1.14222
1.26056
1.36965
1.44917
1.50745
1.55221
1.58186
1.59404
1.59346
1.58684
1.5703
1.54378
1.50918
1.46215
1.39734
1.34251
1.28723
1.26068
1.26083
1.25668
1.24766
1.23788
1.23039
1.22513
1.22673
1.22828
1.22991
1.23109
1.23324
1.23623
1.24073
1.24625
1.25236
1.25894
1.26593
1.27354
1.28141
1.28969
1.29728
1.30434
1.31174
1.31956
1.32792
1.33648
1.34498
1.35368
1.36193
1.36982
1.37733
1.38465
1.39181
1.39882
1.40575
1.41263
1.41948
1.42641
1.43346
1.44043
1.44739
1.45437
1.46133
1.46813
1.47497
1.48208
1.4898
1.49898
1.50863
1.06633
1.14027
1.21922
1.28293
1.32407
1.35908
1.39938
1.42454
1.45849
1.49818
1.53784
1.57906
1.58993
1.57588
1.56307
1.5509
1.54975
1.55423
1.56112
1.54371
1.5118
1.47158
1.42757
1.38183
1.33097
1.27801
1.21777
1.15093
1.07267
0.972935
0.985949
1.0507
1.1575
1.25999
1.37206
1.46451
1.53427
1.59203
1.63371
1.65379
1.66365
1.6673
1.66815
1.65693
1.64451
1.62335
1.58725
1.53998
1.48155
1.40218
1.33859
1.27247
1.2678
1.27004
1.26701
1.26332
1.25594
1.25089
1.24598
1.24739
1.24863
1.25064
1.25289
1.25553
1.25987
1.26554
1.2725
1.27932
1.28635
1.29295
1.2995
1.30659
1.31415
1.32187
1.32996
1.33854
1.34708
1.35542
1.36352
1.37101
1.37827
1.38545
1.3927
1.39997
1.40698
1.41376
1.4204
1.42698
1.43353
1.44006
1.44666
1.45336
1.46027
1.46722
1.4742
1.48134
1.48879
1.49683
1.50636
1.51631
1.06891
1.13366
1.20265
1.26852
1.31519
1.35375
1.38649
1.41538
1.45029
1.49428
1.53791
1.58096
1.62242
1.62673
1.62875
1.62938
1.63437
1.64069
1.64671
1.65193
1.65515
1.63412
1.60846
1.576
1.54205
1.50297
1.46175
1.39554
1.31181
1.20779
1.12455
1.17336
1.24544
1.33854
1.42829
1.5144
1.5752
1.62969
1.65434
1.67891
1.69683
1.70411
1.70544
1.70296
1.70354
1.69362
1.67446
1.65147
1.61135
1.5557
1.48566
1.3964
1.32462
1.26862
1.27814
1.28681
1.28487
1.28063
1.27275
1.26612
1.2667
1.26793
1.27024
1.27318
1.27688
1.28135
1.28652
1.29248
1.29911
1.30577
1.31226
1.31901
1.32617
1.33382
1.3413
1.34883
1.3563
1.36384
1.37135
1.37872
1.3859
1.39316
1.40057
1.40777
1.41485
1.42183
1.42847
1.43488
1.4412
1.44754
1.45403
1.46071
1.46768
1.47472
1.4819
1.48922
1.49678
1.50487
1.51443
1.52437
1.07646
1.134
1.19382
1.25389
1.30157
1.34524
1.37665
1.4076
1.44189
1.48141
1.52788
1.56946
1.61529
1.64089
1.65325
1.66355
1.67326
1.68418
1.69536
1.70706
1.71985
1.73196
1.71583
1.69659
1.67326
1.64183
1.59964
1.52239
1.39384
1.28827
1.19214
1.23554
1.2936
1.36259
1.42609
1.48553
1.53861
1.58134
1.61152
1.64091
1.66509
1.6871
1.70827
1.72532
1.72714
1.72499
1.72478
1.71987
1.69903
1.67247
1.63021
1.56804
1.47293
1.39122
1.30238
1.28872
1.29755
1.30196
1.29842
1.29228
1.28677
1.28569
1.28664
1.28807
1.29154
1.29519
1.29958
1.3047
1.31054
1.31746
1.32447
1.33153
1.33873
1.34592
1.35304
1.3604
1.36757
1.37463
1.38154
1.38848
1.39549
1.40264
1.40988
1.41707
1.42407
1.43073
1.43721
1.44364
1.45011
1.45666
1.46337
1.47027
1.47742
1.48471
1.49215
1.49963
1.50721
1.51522
1.52469
1.53447
1.09036
1.13947
1.19284
1.24574
1.29162
1.33615
1.36427
1.39563
1.42909
1.46669
1.51021
1.55388
1.59372
1.63217
1.65505
1.67053
1.68525
1.70082
1.71375
1.72929
1.74562
1.76854
1.77054
1.75771
1.7397
1.71019
1.65155
1.54557
1.37622
1.20803
1.20713
1.24099
1.29137
1.34235
1.39755
1.45035
1.49849
1.53968
1.5735
1.60483
1.6331
1.6591
1.68497
1.70493
1.72672
1.73804
1.74995
1.7485
1.74854
1.74523
1.72614
1.69261
1.64081
1.56629
1.45989
1.37967
1.29451
1.30153
1.31208
1.31872
1.31607
1.31114
1.30753
1.30829
1.3102
1.31392
1.31867
1.32383
1.32957
1.33588
1.34215
1.3486
1.35508
1.36142
1.36778
1.37424
1.3811
1.38782
1.39456
1.40136
1.40831
1.41534
1.42237
1.42906
1.43547
1.44163
1.44771
1.4538
1.45995
1.46623
1.4727
1.47942
1.48646
1.49369
1.50108
1.50864
1.51632
1.5244
1.53389
1.54384
1.10836
1.15061
1.19675
1.24373
1.28751
1.33013
1.35987
1.38779
1.41793
1.45186
1.49115
1.53545
1.57369
1.61428
1.6415
1.66607
1.68331
1.70057
1.7125
1.73182
1.75073
1.77329
1.79611
1.7856
1.76843
1.72803
1.63927
1.48463
1.33044
1.17882
1.2034
1.23762
1.27825
1.32253
1.36819
1.41362
1.4565
1.49382
1.52942
1.56182
1.59225
1.62104
1.64794
1.67338
1.7006
1.72376
1.74842
1.76097
1.77698
1.77518
1.77306
1.7652
1.74382
1.70469
1.64529
1.56225
1.45366
1.35781
1.3198
1.32932
1.34344
1.34049
1.33697
1.33174
1.33411
1.33777
1.34198
1.3465
1.35087
1.35605
1.36218
1.36933
1.37615
1.38312
1.38925
1.39439
1.39986
1.40577
1.41225
1.41875
1.42536
1.4319
1.43828
1.44443
1.45044
1.45634
1.46224
1.46822
1.47435
1.48067
1.4872
1.49386
1.5007
1.50773
1.51489
1.52216
1.52962
1.53758
1.54693
1.55688
1.13109
1.16716
1.2063
1.2482
1.28821
1.32543
1.36082
1.38554
1.41256
1.44242
1.47617
1.51763
1.5565
1.59674
1.62778
1.65469
1.67367
1.69046
1.70681
1.72187
1.74298
1.76266
1.79171
1.78218
1.75543
1.68584
1.56032
1.37658
1.21372
1.18571
1.20163
1.22657
1.25805
1.29485
1.33344
1.37366
1.41291
1.45103
1.48795
1.5215
1.55323
1.58382
1.61363
1.63872
1.66387
1.68987
1.71468
1.74103
1.76202
1.78481
1.79769
1.79612
1.7949
1.78625
1.76635
1.72235
1.65197
1.53929
1.45055
1.34551
1.35147
1.36281
1.37227
1.37253
1.37162
1.37311
1.37411
1.37639
1.38019
1.38539
1.3906
1.39642
1.40179
1.40735
1.41274
1.41826
1.42355
1.42886
1.43437
1.44022
1.44623
1.45191
1.45743
1.46287
1.4684
1.47404
1.47981
1.48567
1.49163
1.49773
1.50401
1.51051
1.51722
1.52412
1.53118
1.53838
1.54582
1.55382
1.56335
1.57321
1.15252
1.18639
1.22139
1.25842
1.29518
1.32816
1.36183
1.38688
1.41117
1.43755
1.46721
1.50149
1.54005
1.57482
1.6137
1.63887
1.66087
1.68238
1.69701
1.71093
1.73186
1.74838
1.76866
1.75145
1.70021
1.59192
1.41038
1.2548
1.17358
1.1828
1.19686
1.2166
1.24166
1.27142
1.3048
1.34086
1.37789
1.41621
1.45286
1.48573
1.51988
1.55426
1.57924
1.60611
1.63479
1.66301
1.69092
1.72031
1.73878
1.76105
1.78276
1.80577
1.81835
1.8259
1.83278
1.81751
1.78682
1.73513
1.65621
1.53875
1.45043
1.36826
1.38441
1.39814
1.4092
1.40729
1.40498
1.40639
1.40852
1.41322
1.42018
1.42606
1.42999
1.43385
1.43784
1.44231
1.4478
1.45335
1.45887
1.46446
1.47007
1.47541
1.4807
1.48596
1.49125
1.49664
1.50214
1.50778
1.51357
1.51954
1.52573
1.5321
1.53856
1.54502
1.55171
1.55865
1.56592
1.5738
1.58345
1.59317
1.17874
1.20662
1.23814
1.27205
1.30723
1.33606
1.36491
1.38982
1.41182
1.43592
1.4627
1.49297
1.52691
1.55974
1.59244
1.62318
1.65241
1.67063
1.69003
1.70472
1.72339
1.74096
1.73064
1.69347
1.60502
1.43421
1.3074
1.17609
1.1799
1.18646
1.1973
1.21297
1.23333
1.25794
1.28611
1.31734
1.35184
1.38704
1.42269
1.45682
1.49064
1.52201
1.55099
1.58095
1.61119
1.63945
1.66841
1.69214
1.71742
1.74412
1.7721
1.79822
1.81934
1.8396
1.85802
1.86247
1.86169
1.85137
1.81055
1.7473
1.65229
1.53834
1.4272
1.41074
1.41925
1.43575
1.44615
1.44504
1.44538
1.44674
1.44867
1.45359
1.45842
1.46329
1.46566
1.46875
1.4728
1.47841
1.48408
1.48984
1.49501
1.49994
1.50498
1.51021
1.5156
1.52112
1.5267
1.53234
1.53803
1.5438
1.5497
1.55581
1.56204
1.56823
1.57467
1.5814
1.58848
1.59623
1.60586
1.61548
1.20497
1.22861
1.25748
1.28749
1.32053
1.34809
1.37414
1.39679
1.41644
1.43832
1.46261
1.48932
1.51873
1.54742
1.57484
1.60599
1.64061
1.65984
1.6808
1.69929
1.71731
1.70882
1.67892
1.60314
1.44644
1.32101
1.18927
1.18503
1.1889
1.19489
1.20354
1.2154
1.23087
1.25063
1.27465
1.30265
1.33367
1.36606
1.39908
1.4329
1.46668
1.49804
1.53028
1.56307
1.58969
1.6173
1.64631
1.67623
1.70498
1.73286
1.76197
1.78438
1.80781
1.83501
1.85978
1.87795
1.89898
1.90492
1.8956
1.87561
1.82463
1.75011
1.62804
1.53855
1.43673
1.44716
1.46411
1.47637
1.48787
1.48653
1.48715
1.48762
1.48993
1.49236
1.49541
1.49903
1.50303
1.50755
1.51304
1.51824
1.52363
1.52815
1.53282
1.53773
1.54275
1.54793
1.55325
1.55861
1.56398
1.56949
1.57514
1.58103
1.58692
1.59286
1.59912
1.60569
1.61265
1.6203
1.62993
1.63966
1.23613
1.25468
1.27982
1.30527
1.33572
1.36227
1.38604
1.40754
1.4234
1.4424
1.46492
1.49043
1.51554
1.54235
1.56706
1.59591
1.62748
1.65214
1.67511
1.69644
1.68921
1.66325
1.5949
1.46123
1.31946
1.18733
1.1853
1.1919
1.19814
1.20503
1.21291
1.22259
1.23541
1.25185
1.27235
1.29622
1.32324
1.3525
1.38424
1.4168
1.44969
1.48257
1.51579
1.54395
1.57362
1.60382
1.63615
1.66848
1.69452
1.72272
1.75191
1.77573
1.8001
1.82445
1.84986
1.87624
1.90287
1.93127
1.93576
1.94277
1.92542
1.89559
1.83691
1.75101
1.63
1.51902
1.47754
1.48601
1.50379
1.52321
1.52632
1.52572
1.52504
1.52516
1.52504
1.52761
1.53254
1.53684
1.54129
1.54603
1.55082
1.55579
1.56088
1.56593
1.57075
1.57538
1.58009
1.58491
1.58994
1.59527
1.60088
1.60678
1.61296
1.6189
1.62517
1.63178
1.63875
1.64639
1.65602
1.66593
1.26008
1.27706
1.30014
1.32418
1.35224
1.3763
1.39934
1.4236
1.43485
1.44886
1.46789
1.49069
1.51533
1.54116
1.56356
1.58855
1.61949
1.64837
1.67646
1.67599
1.65225
1.58824
1.47072
1.3138
1.17466
1.1736
1.1851
1.19531
1.20668
1.21337
1.22106
1.2302
1.24153
1.25563
1.27301
1.29384
1.31816
1.34576
1.37617
1.40758
1.44027
1.47344
1.50297
1.53405
1.56598
1.59776
1.62953
1.65832
1.68853
1.71871
1.7464
1.77343
1.79707
1.82133
1.84608
1.87117
1.89738
1.92369
1.94791
1.97546
1.97428
1.97109
1.95611
1.91054
1.83905
1.72074
1.6205
1.50711
1.51987
1.53334
1.54794
1.56411
1.56139
1.55834
1.55571
1.55426
1.55426
1.56078
1.56598
1.57178
1.57652
1.5815
1.58628
1.59123
1.5964
1.60109
1.60554
1.60996
1.6147
1.61992
1.62575
1.63198
1.63861
1.64536
1.65209
1.65883
1.66589
1.67364
1.68348
1.69343
1.28444
1.30032
1.32003
1.34339
1.36732
1.39225
1.41378
1.43607
1.45121
1.45985
1.47405
1.49326
1.51683
1.53861
1.56102
1.58626
1.6161
1.64687
1.6604
1.64022
1.5842
1.47583
1.31471
1.16507
1.15411
1.16969
1.18522
1.20146
1.21357
1.22288
1.23276
1.24336
1.25502
1.26841
1.28397
1.30252
1.32401
1.34869
1.37561
1.40534
1.43575
1.46677
1.49925
1.53133
1.56463
1.59371
1.62424
1.65374
1.68534
1.71502
1.74193
1.76876
1.79521
1.81913
1.8429
1.86762
1.89311
1.91973
1.95027
1.9791
1.99501
2.00925
2.01037
1.99427
1.96205
1.90731
1.8304
1.71379
1.62706
1.54183
1.55129
1.57023
1.58204
1.5923
1.58791
1.58497
1.58348
1.5854
1.59195
1.59774
1.60454
1.60883
1.61319
1.61706
1.62109
1.62538
1.62981
1.63448
1.63947
1.64501
1.65104
1.65741
1.66439
1.67131
1.67819
1.68512
1.69235
1.70014
1.71021
1.72033
1.31678
1.30969
1.32826
1.35283
1.37625
1.40689
1.42799
1.44877
1.46999
1.47552
1.48567
1.5014
1.52109
1.54276
1.56254
1.59034
1.61322
1.64024
1.62514
1.57858
1.48005
1.31903
1.16292
1.13423
1.15313
1.17226
1.19271
1.20791
1.22287
1.23665
1.24914
1.26097
1.27307
1.28604
1.3004
1.31691
1.33585
1.35759
1.38213
1.40921
1.43835
1.47016
1.50282
1.53211
1.56231
1.59269
1.62373
1.65479
1.68221
1.71008
1.73822
1.76526
1.7919
1.8156
1.83966
1.8634
1.888
1.91419
1.94065
1.96785
1.99353
2.01285
2.03271
2.02901
2.02435
2.01107
1.97195
1.91071
1.82446
1.70784
1.60266
1.58593
1.58874
1.59814
1.60839
1.6105
1.60996
1.61153
1.61449
1.62023
1.62634
1.63315
1.63784
1.64131
1.64507
1.64915
1.65352
1.65844
1.66417
1.67009
1.67648
1.68283
1.68945
1.69592
1.70231
1.70897
1.71603
1.72384
1.73406
1.74461
1.37022
1.33856
1.34567
1.36411
1.3868
1.41254
1.43811
1.4604
1.48411
1.49422
1.50172
1.51422
1.5313
1.55311
1.57147
1.59616
1.61839
1.60784
1.56896
1.47999
1.32055
1.16794
1.11792
1.13879
1.15907
1.18011
1.1973
1.21474
1.23236
1.24963
1.26558
1.27912
1.2926
1.30656
1.32141
1.33765
1.35565
1.37584
1.39826
1.42283
1.44947
1.47766
1.50667
1.53678
1.56732
1.59712
1.62702
1.65628
1.68553
1.71254
1.73933
1.76629
1.79017
1.81472
1.83728
1.86045
1.88491
1.911
1.9375
1.96365
1.98373
2.00462
2.02571
2.04136
2.05743
2.0559
2.04316
2.02455
1.97976
1.9114
1.79486
1.70657
1.60856
1.61505
1.62253
1.63364
1.64555
1.64569
1.64665
1.64804
1.65191
1.65654
1.66152
1.66582
1.66892
1.67231
1.67613
1.68023
1.68517
1.69131
1.69798
1.70501
1.71231
1.71925
1.72606
1.73293
1.74009
1.74805
1.75836
1.76936
1.44635
1.3716
1.36027
1.37582
1.39684
1.41879
1.44781
1.47302
1.49951
1.51096
1.51865
1.52968
1.5449
1.56401
1.58548
1.60656
1.59818
1.56176
1.47861
1.32137
1.18194
1.10702
1.12896
1.15108
1.17414
1.19156
1.21003
1.2296
1.24955
1.26978
1.28891
1.30578
1.32111
1.33615
1.35136
1.36712
1.38382
1.40186
1.4216
1.44304
1.46628
1.49104
1.51726
1.54444
1.57228
1.6004
1.62903
1.65784
1.6859
1.71309
1.73842
1.7634
1.78746
1.8104
1.83295
1.85595
1.88035
1.90668
1.93328
1.95586
1.97843
2.00177
2.02
2.03847
2.05669
2.07154
2.07946
2.07698
2.06607
2.04404
1.99561
1.912
1.79013
1.68784
1.63655
1.63636
1.65351
1.66446
1.67709
1.67887
1.67943
1.68174
1.68475
1.68881
1.69263
1.69664
1.70093
1.70503
1.70916
1.71422
1.72038
1.72776
1.73528
1.74262
1.74962
1.75675
1.76414
1.77238
1.78295
1.79467
1.73734
1.42632
1.39445
1.38994
1.40481
1.42513
1.45035
1.47995
1.50612
1.53085
1.53565
1.54516
1.55997
1.57722
1.59885
1.59058
1.55643
1.47888
1.32449
1.20138
1.09662
1.12142
1.14647
1.17269
1.18952
1.20756
1.22688
1.24736
1.26828
1.28938
1.31022
1.32966
1.34723
1.36324
1.37869
1.39415
1.41003
1.4266
1.44417
1.46305
1.48327
1.50491
1.52781
1.55202
1.57728
1.60352
1.63071
1.65793
1.68534
1.71235
1.73788