/*--------------------------------*- C++ -*----------------------------------*\
| =========                 |                                                 |
| \\      /  F ield         | OpenFOAM: The Open Source CFD Toolbox           |
|  \\    /   O peration     | Version:  v2106                                 |
|   \\  /    A nd           | Website:  www.openfoam.com                      |
|    \\/     M anipulation  |                                                 |
\*---------------------------------------------------------------------------*/
FoamFile
{
    version     2.0;
    format      ascii;
    arch        "LSB;label=32;scalar=64";
    class       volScalarField;
    location    "13";
    object      p;
}
// * * * * * * * * * * * * * * * * * * * * * * * * * * * * * * * * * * * * * //

dimensions      [1 -1 -2 0 0 0 0];

internalField   nonuniform List<scalar> 
5250
(
1
1
1
1
1
1
1
1
1.00002
1.00009
1.00131
1.00946
1.10195
1.68743
4.11143
10.6066
11.4775
11.0287
11.3324
11.582
11.6738
11.8416
11.9571
12.0503
12.1027
1
1
1
1
1
1
1
1
1.00002
1.00009
1.00128
1.00922
1.09909
1.67181
4.05362
10.5094
11.5222
11.0078
11.3173
11.5622
11.654
11.8252
11.944
12.0347
12.0873
1
1
1
1
1
1
1
1
1.00002
1.00008
1.00125
1.00859
1.09537
1.63861
3.92494
10.2615
11.5938
10.935
11.2614
11.5173
11.598
11.7639
11.8709
11.9595
12.0028
1
1
1
1
1
1
1
1
1.00001
1.00011
1.00107
1.00911
1.08448
1.58596
3.73472
9.89522
11.7307
10.8383
11.2065
11.45
11.5113
11.6689
11.7863
11.8578
11.9007
1
1
1
1
1
1
1
1
1.00001
1.0001
1.00086
1.00771
1.06779
1.51616
3.47237
9.37661
11.8662
10.7177
11.1277
11.3412
11.3915
11.5397
11.6387
11.7111
11.749
1
1
1
1
1
1
1
1
1.00001
1.00008
1.0007
1.0064
1.05437
1.43177
3.12758
8.70513
12.0947
10.5902
11.0324
11.2538
11.2716
11.396
11.5156
11.5328
11.5524
1
1
1
1
1
1
1
1
1.00001
1.00006
1.00051
1.00515
1.03998
1.34265
2.76312
7.80435
12.2843
10.4737
10.9184
11.1347
11.1196
11.1824
11.2775
11.3075
11.2978
1
1
1
1
1
1
1
1
1
1.00004
1.00037
1.00337
1.0285
1.26828
2.45053
6.88886
12.324
10.3848
10.7713
11.0161
10.9646
11.0028
11.0187
11.0567
10.9003
1
1
1
1
1
1
1
1
1
1.00003
1.00027
1.00229
1.02056
1.21041
2.1932
6.03252
11.8337
10.4725
10.6594
10.8393
10.7798
10.7296
10.6582
10.5898
10.3548
1
1
1
1
1
1
1
1
1
1.00003
1.00016
1.00209
1.01525
1.16067
1.96163
5.22545
11.0177
10.4156
10.5107
10.6419
10.5818
10.4197
10.239
10.2571
9.32195
1
1
1
1
1
1
1
1
1
1.00002
1.00011
1.00161
1.01059
1.12094
1.75236
4.40967
10.0721
10.4829
10.333
10.2587
10.2867
10.0756
9.62418
9.28354
6.81542
1
1
1
1
1
1
1
1
1
1.00001
1.00013
1.00108
1.01032
1.08184
1.56205
3.658
8.89088
10.5571
10.1387
9.95233
9.88936
9.68683
9.03774
8.48198
6.55608
1
1
1
1
1
1
1
1
1
1.00001
1.00006
1.00058
1.00557
1.04339
1.38745
2.96315
7.56362
10.5884
9.80274
9.66773
9.54518
9.34235
8.72223
8.00712
6.66062
1
1
1
1
1
1
1
1
1
1.00001
1.00002
1.00036
1.00187
1.02488
1.24694
2.35745
6.26412
10.5718
9.5846
9.4385
9.31243
9.05589
8.48093
7.77213
6.65294
1
1
1
1
1
1
1
1
1
1
1.00003
1.00018
1.00221
1.01623
1.16818
2.00031
5.17257
9.79861
9.50801
9.26653
9.09646
8.80893
8.27154
7.58222
6.62955
1
1
1
1
1
1
1
1
1
1
1.00002
1.0001
1.00137
1.00946
1.10359
1.67196
4.10221
8.52135
9.45336
9.10278
8.84294
8.52507
8.04833
7.43425
6.6195
1
1
1
1
1
1
1
1
1
1
1.00001
1.00008
1.00075
1.00638
1.05603
1.4283
3.1368
7.06061
9.36698
8.91347
8.61796
8.31642
7.89322
7.34072
6.62487
1
1
1
1
1
1
1
1
1
1
1
1.00005
1.00025
1.00375
1.02417
1.26176
2.29952
5.57166
9.02346
8.7793
8.48838
8.18986
7.78324
7.27393
6.63295
1
1
1
1
1
1
1
1
1
1
1
1.00003
1.0002
1.00181
1.01451
1.13047
1.82385
4.34861
8.09686
8.78578
8.43733
8.07569
7.67054
7.19054
6.61334
1
1
1
1
1
1
1
1
1
1
1
1.00003
1.00017
1.00006
1.00895
1.03524
1.5271
3.23329
6.65266
8.63601
8.25874
7.93922
7.56983
7.13346
6.60478
1
1
1
1
1
1
1
1
1
1
1
1.00001
1.00005
1.00035
1.00319
1.02429
1.21343
2.22622
5.14471
8.12721
8.16274
7.86802
7.5078
7.08932
6.59934
1
1
1
1
1
1
1
1
1
1
1
1
1.00004
1.00023
0.999855
1.0144
1.04571
1.8167
3.89983
7.04849
8.20505
7.8844
7.48935
7.07369
6.61036
1
1
1
1
1
1
1
1
1
1
1
1
1.00001
1.00008
1.00058
1.00503
1.04031
1.31575
2.67352
5.58194
7.89627
7.70393
7.40377
7.02917
6.59814
1
1
1
1
1
1
1
1
1
1
1
1
1
1.00006
1.00033
0.999885
1.02076
1.04076
1.96652
4.28014
7.11806
7.74889
7.43081
7.05424
6.63193
1
1
1
1
1
1
1
1
1
1
1
1
1
1.00001
1.00011
1.00078
1.00695
1.0518
1.39837
2.94739
5.66892
7.49937
7.28794
6.99498
6.62838
1
1
1
1
1
1
1
1
1
1
1
1
1
1
1.00008
1.00027
1.00452
1.02812
1.03021
2.03481
4.36996
6.87691
7.35156
7.02759
6.66367
1
1
1
1
1
1
1
1
1
1
1
1
1
1
1.00002
1.00013
1.00103
1.00817
1.0584
1.44385
3.02313
5.52139
7.13027
6.92903
6.63038
1
1
1
1
1
1
1
1
1
1
1
1
1
1
1
1.00007
1.00033
1.00503
1.02772
1.02144
2.03736
4.22787
6.49685
6.96614
6.66617
1
1
1
1
1
1
1
1
1
1
1
1
1
1
1
1.00002
1.00014
1.00109
1.00824
1.05908
1.43731
2.91471
5.18459
6.70069
6.57356
1
1
1
1
1
1
1
1
1
1
1
1
1
1
1
1
1.00006
1.00028
1.0039
1.02115
1.00331
1.86321
3.85365
5.99032
6.60404
1
1
1
1
1
1
1
1
1
1
1
1
1
1
1
1
1.00001
1.00012
1.00074
1.00709
1.04564
1.3962
2.70208
4.82162
6.38982
1
1
1
1
1
1
1
1
1
1
1
1
1
1
1
1
1.00001
1.00001
1.00033
1.00084
1.01436
1.03819
1.76364
3.51453
5.56178
1
1
1
1
1
1
1
1
1
1
1
1
1
1
1
1
1
1.00001
1.0001
1.00052
1.00546
1.03436
1.30521
2.38939
4.32655
1
1
1
1
1
1
1
1
1
1
1
1
1
1
1
1
1
1
1.00002
1.00019
1.0009
1.01084
1.05352
1.62936
3.00928
1
1
1
1
1
1
1
1
1
1
1
1
1
1
1
1
1
1
1.00001
1.00007
1.00055
1.00394
1.02987
1.22298
2.09083
1
1
1
1
1
1
1
1
1
1
1
1
1
1
1
1
1
1
1
1.00002
1.0001
1.00078
1.00615
1.04044
1.37927
1
1
1
1
1
1
1
1
1
1
1
1
1
1
1
1
1
1
1
0.999994
0.999939
0.999423
0.993857
1.01145
1.04269
1
1
1
1
1
1
1
1
1
1
1
1
1
1
1
1
1
1
1
1
1
1.00007
1.00021
1.00421
1.02531
1
1
1
1
1
1
1
1
1
1
1
1
1
1
1
1
1
1
1
1
0.999998
0.999971
0.999873
1.00028
1.00569
1
1
1
1
1
1
1
1
1
1
1
1
1
1
1
1
1
1
1
1
1
1.00001
1.00001
1.00028
1.00111
1
1
1
1
1
1
1
1
1
1
1
1
1
1
1
1
1
1
1
1
1
1
1
1.00004
1.0004
1
1
1
1
1
1
1
1
1
1
1
1
1
1
1
1
1
1
1
1
1
1
1
1.00001
0.999991
1
1
1
1
1
1
1
1
1
1
1
1
1
1
1
1
1
1
1
1
1
1
1
1
1.00003
1
1
1
1
1
1
1
1
1
1
1
1
1
1
1
1
1
1
1
1
1
1
1
1
1
1
1
1
1
1
1
1
1
1
1
1
1
1
1
1
1
1
1
1
1
1
1
1
1
1
1
1
1
1
1
1
1
1
1
1
1
1
1
1
1
1
1
1
1
1
1
1
1
1
1
1
1
1
1
1
1
1
1
1
1
1
1
1
1
1
1
1
1
1
1
1
1
1
1
1
1
1
1
1
1
1
1
1
1
1
1
1
1
1
1
1
1
1
1
1
1
1
1
1
1
1
1
1
1
1
1
1
1
1
1
1
1
1
1
1
1
1
1
1
1
1
1
1
1
1
1
1
1
1
1
1
1
1
1
1
1
1
1
1
1
1
1
1
1
1
1
1
1
1
1
2.68625
3.06132
3.89139
3.30136
3.54508
3.55836
3.36202
2.91565
2.57727
2.46658
2.47338
2.49479
2.50048
2.48455
2.38117
2.20196
2.08498
2.04621
2.0512
2.06316
2.07956
2.08691
2.08758
2.08639
2.07934
2.07047
2.06182
2.0595
2.05635
2.05824
2.06547
2.09643
2.14142
2.2203
2.34983
2.49803
2.64719
2.81634
3.03447
3.20227
3.36772
3.55718
3.75861
3.95165
4.15526
4.30827
4.42248
4.54408
4.65401
4.72258
4.80068
4.85145
4.86907
4.88824
4.89501
4.89188
4.88018
4.86433
4.83919
4.80611
4.76891
4.729
4.68646
4.64116
4.59381
4.54482
4.49501
4.44448
4.3937
4.34213
4.29006
4.23764
4.18533
4.13311
4.08131
4.03036
3.98056
3.93164
3.88375
3.83677
3.79072
3.74562
3.70147
3.65823
3.61596
3.57451
3.534
3.49438
3.45584
3.41833
3.38204
3.34681
3.31286
3.27973
3.24785
3.21535
3.18302
3.14868
3.11454
3.0945
4.12082
4.01595
3.62126
3.28206
3.66332
3.7063
3.5713
2.97056
2.47949
2.3443
2.39141
2.47543
2.48595
2.43101
2.31021
2.18299
2.0954
2.05601
2.06202
2.07287
2.08521
2.09417
2.09349
2.09423
2.08685
2.07884
2.06549
2.05752
2.05144
2.05599
2.06727
2.10189
2.15087
2.2163
2.33006
2.46482
2.60085
2.76523
3.00187
3.2093
3.39665
3.57506
3.76794
3.95026
4.14078
4.27936
4.38406
4.51532
4.63106
4.70615
4.78581
4.83796
4.86017
4.87941
4.88812
4.88622
4.87307
4.85645
4.83202
4.79929
4.76176
4.72244
4.68053
4.63532
4.588
4.53933
4.49026
4.44037
4.39013
4.33894
4.28709
4.23496
4.18277
4.13068
4.07892
4.02811
3.97839
3.92953
3.88167
3.83463
3.78846
3.74328
3.69915
3.65597
3.61383
3.57259
3.53227
3.49289
3.45451
3.4172
3.38103
3.3459
3.31206
3.27928
3.24736
3.21524
3.18263
3.14799
3.11194
3.09091
4.96366
4.36745
3.92787
3.60318
3.62749
3.58195
3.22328
2.6744
2.43289
2.4138
2.47429
2.51517
2.51518
2.49805
2.43781
2.2705
2.07923
2.01585
2.00959
2.04807
2.0737
2.09038
2.08738
2.08618
2.07314
2.0642
2.05108
2.05931
2.05371
2.05914
2.0618
2.08842
2.12958
2.19673
2.3228
2.48316
2.64774
2.75725
2.99099
3.17022
3.31409
3.50231
3.71043
3.90671
4.11954
4.26793
4.37883
4.48134
4.59026
4.67248
4.74238
4.80232
4.83015
4.84779
4.85614
4.85796
4.84762
4.83422
4.81167
4.78054
4.74402
4.70568
4.66567
4.62254
4.57681
4.52939
4.48083
4.43162
4.38219
4.33201
4.28111
4.22955
4.17784
4.12585
4.07424
4.0237
3.97427
3.92563
3.8778
3.83072
3.78443
3.73917
3.69502
3.65197
3.61002
3.56904
3.52904
3.49006
3.45218
3.41541
3.37966
3.34486
3.31137
3.27908
3.2472
3.21526
3.18261
3.14763
3.10975
3.08687
5.34571
4.5095
4.01054
3.65938
3.60011
3.5632
3.29456
2.88899
2.60157
2.45753
2.43363
2.48179
2.48913
2.43176
2.2814
2.1153
2.05146
2.03851
2.05412
2.08512
2.08972
2.10158
2.0974
2.10051
2.08784
2.0882
2.06074
2.0584
2.03914
2.04752
2.05333
2.08852
2.13861
2.18336
2.2876
2.41614
2.54554
2.70121
2.91886
3.14228
3.31127
3.46864
3.64929
3.82442
3.99685
4.17062
4.30583
4.40099
4.52091
4.63079
4.67744
4.73617
4.78429
4.81588
4.8299
4.83257
4.82188
4.80545
4.784
4.75734
4.72451
4.68843
4.64932
4.60663
4.56166
4.51567
4.46869
4.42068
4.3718
4.3221
4.27176
4.221
4.17011
4.11886
4.06773
4.0176
3.96859
3.92026
3.87244
3.82519
3.77867
3.7331
3.68882
3.6459
3.60432
3.56399
3.52473
3.48649
3.44938
3.41333
3.37802
3.34356
3.31033
3.27828
3.2465
3.21471
3.18213
3.14689
3.10756
3.08269
5.52394
4.71057
4.17579
3.81843
3.67316
3.58459
3.37555
2.9335
2.55785
2.4307
2.4345
2.49447
2.49328
2.44617
2.36422
2.2329
2.12443
2.05802
2.03359
2.05488
2.0741
2.09028
2.08683
2.08587
2.06957
2.06086
2.04069
2.05481
2.04782
2.0572
2.05438
2.07197
2.10229
2.16867
2.26382
2.3981
2.52381
2.65951
2.80986
3.00761
3.19028
3.38381
3.56902
3.73743
3.89603
4.05277
4.19127
4.30403
4.43506
4.54333
4.59679
4.66806
4.72415
4.75066
4.77181
4.77285
4.77372
4.7655
4.74672
4.72021
4.68805
4.65631
4.62413
4.58676
4.54416
4.4989
4.45237
4.40531
4.35808
4.30997
4.26026
4.20994
4.15949
4.10908
4.05902
4.00956
3.96096
3.91296
3.8653
3.81812
3.77167
3.72633
3.68231
3.63975
3.59872
3.55902
3.52049
3.48306
3.44675
3.41153
3.37687
3.34283
3.30975
3.27768
3.24594
3.21418
3.18164
3.14612
3.10558
3.07913
5.66716
4.9176
4.37183
3.99859
3.77734
3.65311
3.4699
3.09614
2.73175
2.53169
2.49128
2.5034
2.50105
2.44357
2.33419
2.18055
2.08706
2.04631
2.04448
2.07284
2.08853
2.10064
2.09559
2.09666
2.08243
2.08094
2.05891
2.06108
2.04225
2.0526
2.05962
2.08676
2.11941
2.16117
2.21429
2.29082
2.35789
2.46362
2.57701
2.74584
2.93668
3.15458
3.36799
3.56988
3.75507
3.91507
4.08474
4.20252
4.30785
4.36927
4.46809
4.58517
4.6579
4.69242
4.70696
4.71656
4.72003
4.71641
4.69636
4.67976
4.66147
4.6364
4.6035
4.56642
4.52541
4.4823
4.43698
4.38944
4.34129
4.29283
4.24432
4.19582
4.14685
4.09743
4.04832
3.99999
3.95204
3.90434
3.85708
3.81047
3.76459
3.71961
3.67584
3.63369
3.5933
3.55443
3.51677
3.48022
3.44469
3.41008
3.37595
3.34216
3.30892
3.27661
3.24478
3.21285
3.18019
3.1445
3.1033
3.07582
5.79864
5.10552
4.56265
4.16877
3.90529
3.76112
3.5533
3.25969
2.95929
2.6733
2.52922
2.4968
2.49037
2.45842
2.39405
2.26428
2.14935
2.08162
2.05256
2.05668
2.0717
2.08794
2.08479
2.08369
2.07228
2.06876
2.05043
2.06636
2.05516
2.08542
2.10902
2.13517
2.15493
2.1922
2.19915
2.21639
2.25789
2.31816
2.38276
2.49279
2.61528
2.76256
2.92552
3.1257
3.34058
3.60562
3.88466
4.10866
4.24575
4.28259
4.3396
4.40977
4.50655
4.60515
4.66799
4.67347
4.6573
4.64342
4.63361
4.63408
4.62386
4.60613
4.57224
4.53579
4.49841
4.45827
4.41529
4.36998
4.32349
4.27685
4.22923
4.18064
4.13252
4.08494
4.03727
3.9899
3.9429
3.89614
3.84953
3.80335
3.7579
3.71345
3.67028
3.6287
3.58886
3.55071
3.51381
3.47799
3.44308
3.40889
3.37503
3.34132
3.3079
3.27519
3.24303
3.21082
3.17799
3.14216
3.10039
3.07206
5.90871
5.25316
4.72879
4.30769
4.04387
3.84377
3.66957
3.41221
3.13075
2.86073
2.64848
2.5457
2.51817
2.49256
2.4448
2.3375
2.20296
2.09689
2.04039
2.03649
2.05971
2.09103
2.10015
2.09724
2.08249
2.07828
2.07072
2.08545
2.1133
2.15349
2.2401
2.30224
2.32132
2.31377
2.27285
2.23452
2.22611
2.23865
2.26864
2.31456
2.37786
2.46678
2.57026
2.70355
2.85194
3.07918
3.35364
3.66951
4.01583
4.25843
4.35001
4.33619
4.36719
4.44145
4.5317
4.58904
4.61682
4.61297
4.60011
4.58402
4.5749
4.56641
4.54381
4.50988
4.47298
4.43202
4.38973
4.34871
4.30449
4.2562
4.20731
4.16096
4.11589
4.07102
4.02568
3.97969
3.93296
3.88621
3.84037
3.79563
3.75156
3.7082
3.66577
3.62478
3.58551
3.54792
3.51168
3.47633
3.44167
3.40758
3.3738
3.34003
3.30639
3.27326
3.24066
3.20818
3.1751
3.139
3.09671
3.06783
5.96775
5.35768
4.84418
4.43948
4.17756
3.93582
3.77043
3.54333
3.29005
3.02717
2.79235
2.63288
2.55779
2.52133
2.46714
2.38971
2.27384
2.16411
2.08709
2.05687
2.06005
2.07515
2.0918
2.09222
2.09354
2.08512
2.10185
2.11672
2.22167
2.3273
2.54514
2.6228
2.62625
2.5663
2.44123
2.34641
2.29525
2.26162
2.25732
2.25824
2.28403
2.31615
2.3658
2.41661
2.49476
2.63904
2.81066
3.03994
3.36394
3.75248
4.15425
4.363
4.39512
4.38141
4.38284
4.43086
4.50469
4.53421
4.55168
4.53603
4.52411
4.5136
4.50526
4.4794
4.44624
4.40929
4.36685
4.32192
4.2791
4.23597
4.19173
4.14673
4.10213
4.05777
4.01329
3.96861
3.92281
3.87643
3.83136
3.78753
3.74426
3.70159
3.65983
3.61946
3.58093
3.54416
3.50854
3.47362
3.43918
3.40515
3.37135
3.33762
3.30389
3.27048
3.23744
3.20446
3.17095
3.13453
3.09195
3.06277
6.02668
5.4576
4.96045
4.56577
4.2837
4.03075
3.86568
3.65613
3.42078
3.17071
2.929
2.73394
2.61619
2.55886
2.50579
2.43677
2.34177
2.25266
2.1728
2.10112
2.06514
2.05768
2.06811
2.0792
2.09769
2.09625
2.13525
2.18199
2.407
2.72741
3.08534
3.11815
3.05618
2.86644
2.66436
2.52306
2.42604
2.35961
2.32145
2.2924
2.27831
2.27458
2.28251
2.2913
2.32941
2.38636
2.45363
2.58137
2.7763
3.04242
3.41531
3.8857
4.29464
4.46275
4.41954
4.37191
4.37209
4.4037
4.46466
4.49253
4.48823
4.471
4.4563
4.43587
4.40953
4.38026
4.34492
4.30166
4.25513
4.21239
4.17206
4.13014
4.08621
4.04222
3.99819
3.95386
3.91012
3.86609
3.82234
3.77941
3.73724
3.69569
3.65487
3.61512
3.57692
3.54042
3.50511
3.47047
3.43624
3.40237
3.36869
3.33497
3.30108
3.26728
3.23375
3.20033
3.16649
3.12979
3.08683
3.05718
6.06545
5.53434
5.06203
4.67751
4.37792
4.12704
3.94919
3.75219
3.53273
3.29503
3.06091
2.85006
2.69635
2.60535
2.53826
2.47945
2.41215
2.32323
2.24322
2.16938
2.10299
2.06905
2.07068
2.07948
2.09946
2.12864
2.19907
2.34816
2.77672
3.36641
3.6992
3.65917
3.47839
3.22299
3.00131
2.82037
2.67555
2.57095
2.49031
2.4194
2.35716
2.31046
2.27607
2.26665
2.26694
2.27222
2.28474
2.33968
2.41647
2.54109
2.75503
3.07387
3.49849
4.04435
4.37764
4.44622
4.36319
4.32769
4.3465
4.38705
4.41509
4.41833
4.41437
4.39677
4.37087
4.34177
4.31173
4.27947
4.2403
4.1963
4.1529
4.11161
4.07011
4.02731
3.98341
3.93868
3.89508
3.85295
3.81122
3.76948
3.72794
3.68689
3.64672
3.60792
3.57085
3.53518
3.50038
3.46608
3.43208
3.39824
3.36445
3.3306
3.2966
3.26257
3.22869
3.19489
3.16057
3.12338
3.07986
3.04955
6.11071
5.61334
5.15768
4.77376
4.46369
4.21928
4.03229
3.84448
3.63377
3.40629
3.18276
2.97446
2.79286
2.6674
2.58658
2.52418
2.4578
2.38415
2.31544
2.23302
2.14836
2.08933
2.0744
2.08174
2.10661
2.16814
2.30506
2.67069
3.38327
4.12765
4.19674
4.06915
3.81026
3.56505
3.34851
3.15022
2.98093
2.83604
2.7167
2.613
2.52475
2.44849
2.3807
2.32071
2.27771
2.2531
2.23241
2.24229
2.25486
2.29994
2.38532
2.51989
2.77147
3.14644
3.63846
4.182
4.43873
4.41369
4.31946
4.28886
4.30624
4.35029
4.36103
4.35653
4.33943
4.31152
4.27897
4.24546
4.21056
4.17516
4.13305
4.08927
4.04774
4.00684
3.96646
3.92509
3.88212
3.83962
3.79848
3.75812
3.71769
3.67745
3.63827
3.6007
3.56465
3.52968
3.4953
3.46124
3.42737
3.39358
3.35981
3.32601
3.29209
3.25792
3.22366
3.18935
3.15452
3.11673
3.07238
3.04134
6.13087
5.66785
5.23694
4.86007
4.54236
4.29732
4.10001
3.92258
3.72795
3.51804
3.29688
3.0901
2.89995
2.74623
2.64716
2.56864
2.50295
2.44951
2.37733
2.29428
2.21028
2.13355
2.09828
2.10538
2.143
2.25326
2.53899
3.18705
4.0955
4.6875
4.56845
4.35385
4.1069
3.86919
3.64292
3.43692
3.25357
3.09454
2.95508
2.83059
2.71877
2.62061
2.53096
2.45
2.37612
2.30828
2.26094
2.23552
2.21181
2.21572
2.22843
2.27159
2.37509
2.54529
2.83226
3.25585
3.82861
4.28767
4.43667
4.33309
4.23829
4.23919
4.26907
4.31118
4.30127
4.27091
4.23791
4.20906
4.18181
4.15294
4.11847
4.07336
4.02617
3.98302
3.94372
3.90749
3.86947
3.82908
3.78727
3.74585
3.70568
3.66679
3.62917
3.59285
3.55771
3.52349
3.48981
3.45638
3.42286
3.38911
3.35514
3.32113
3.28711
3.25272
3.21807
3.18321
3.14768
3.10916
3.06388
3.03201
6.17891
5.73505
5.31796
4.94703
4.62789
4.37016
4.16088
3.9819
3.79844
3.60883
3.40256
3.19599
3.01187
2.84043
2.71459
2.6295
2.5613
2.49581
2.42754
2.35716
2.27809
2.19238
2.1438
2.16172
2.23577
2.45438
3.03611
3.98723
4.73056
4.85566
4.75683
4.57759
4.36976
4.14718
3.93396
3.72556
3.53094
3.35439
3.19489
3.05168
2.92569
2.81025
2.70504
2.61275
2.52156
2.44267
2.37271
2.30262
2.24318
2.20396
2.18571
2.19422
2.21515
2.25151
2.36134
2.58514
2.92286
3.40322
4.02264
4.34763
4.36482
4.25267
4.19642
4.18991
4.21626
4.21799
4.20572
4.18414
4.15812
4.1247
4.08841
4.0526
4.01367
3.97383
3.93302
3.8927
3.85446
3.81651
3.7768
3.73597
3.69621
3.65848
3.62262
3.58799
3.55376
3.51968
3.48559
3.45162
3.41767
3.38376
3.34973
3.31567
3.28155
3.24707
3.21207
3.17656
3.14013
3.10072
3.05437
3.02134
6.21167
5.78843
5.38597
5.01403
4.70076
4.44068
4.22777
4.04431
3.86794
3.68781
3.49643
3.29543
3.11268
2.94886
2.80175
2.70147
2.61701
2.5455
2.48241
2.41344
2.33245
2.2601
2.21982
2.26181
2.43302
2.89888
3.78088
4.65379
4.96313
4.92101
4.82965
4.70008
4.5415
4.36039
4.16213
3.96121
3.76535
3.58015
3.41035
3.26058
3.1183
2.98783
2.88044
2.77803
2.67739
2.58609
2.48873
2.41036
2.34714
2.28356
2.23173
2.196
2.17357
2.15332
2.18784
2.24342
2.38039
2.63734
3.03148
3.58422
4.16196
4.39183
4.31346
4.16049
4.12022
4.13744
4.15118
4.15522
4.13147
4.0922
4.04645
4.00776
3.9766
3.94738
3.91569
3.87822
3.83652
3.79553
3.75692
3.7191
3.68186
3.64591
3.6117
3.57856
3.54556
3.51249
3.47926
3.44586
3.4121
3.37799
3.34362
3.30944
3.27534
3.24065
3.20502
3.16862
3.13114
3.0907
3.04315
3.00882
6.25845
5.85303
5.46144
5.0897
4.7719
4.51173
4.29762
4.11218
3.94228
3.76858
3.58548
3.39628
3.20473
3.04652
2.90075
2.77408
2.67476
2.60242
2.5282
2.45955
2.38905
2.34322
2.3577
2.46562
2.8465
3.63188
4.53948
4.97783
4.98022
4.94749
4.88537
4.79298
4.66865
4.51958
4.35035
4.16827
3.9806
3.79274
3.61902
3.45882
3.30411
3.17067
3.05437
2.93746
2.82633
2.722
2.62746
2.55134
2.47043
2.3976
2.32691
2.2616
2.21116
2.1719
2.14166
2.12494
2.15493
2.24746
2.4135
2.726
3.17771
3.79489
4.22702
4.33809
4.2117
4.08104
4.05368
4.07055
4.07162
4.06301
4.033
3.9935
3.95346
3.91894
3.89215
3.86369
3.82858
3.78651
3.74395
3.70606
3.67187
3.63902
3.60639
3.57369
3.54057
3.50711
3.47342
3.43967
3.40591
3.37192
3.33741
3.30277
3.26817
3.23297
3.19671
3.15945
3.12093
3.07951
3.03077
2.9951
6.28461
5.90117
5.52636
5.15909
4.83866
4.57949
4.36013
4.17432
4.00851
3.838
3.66299
3.48534
3.31019
3.14826
3.0039
2.86464
2.74753
2.66318
2.57756
2.50691
2.45954
2.46467
2.56251
2.87905
3.57869
4.48806
4.97687
5.0125
4.99572
4.96586
4.92016
4.85314
4.75797
4.63667
4.48998
4.32549
4.14945
3.97305
3.80483
3.63856
3.48475
3.34948
3.21135
3.08669
2.97712
2.87417
2.77766
2.68255
2.59074
2.50771
2.42818
2.36106
2.29555
2.23187
2.17037
2.13279
2.09018
2.10166
2.138
2.26584
2.47919
2.84303
3.35391
3.97796
4.27529
4.24309
4.10328
3.99795
3.96417
3.97997
3.97835
3.95715
3.93088
3.89802
3.8668
3.83442
3.80298
3.76914
3.73125
3.6934
3.65909
3.6277
3.59683
3.56535
3.53266
3.49906
3.46519
3.43152
3.39814
3.36466
3.33049
3.29588
3.26063
3.22397
3.1861
3.14741
3.10787
3.06578
3.01618
2.9795
6.32788
5.96513
5.59753
5.23934
4.90479
4.64838
4.42227
4.23087
4.07342
3.91159
3.74226
3.56355
3.40044
3.23673
3.09481
2.95382
2.82777
2.72596
2.61822
2.57408
2.57117
2.65619
2.93889
3.59109
4.52401
5.05425
5.0871
5.04613
5.00693
4.97671
4.94432
4.89606
4.82566
4.72561
4.60094
4.45414
4.29804
4.13581
3.97347
3.80735
3.65475
3.50076
3.36083
3.2392
3.12742
3.0083
2.89726
2.78979
2.70363
2.60791
2.52018
2.45105
2.37865
2.3109
2.24506
2.17987
2.12043
2.07739
2.06348
2.08865
2.14346
2.2961
2.55627
2.96411
3.55181
4.07532
4.2407
4.12088
3.97237
3.89141
3.88577
3.88599
3.8834
3.87779
3.8531
3.81685
3.77923
3.74503
3.7135
3.68235
3.6502
3.61763
3.58547
3.55393
3.52266
3.49081
3.45858
3.426
3.39274
3.35828
3.32247
3.28627
3.25012
3.21292
3.17443
3.13479
3.09428
3.05118
3.00034
2.96259
6.31822
5.99619
5.65853
5.32924
4.99213
4.73037
4.50854
4.29997
4.13905
3.99253
3.83216
3.65724
3.48803
3.32577
3.18108
3.04057
2.90237
2.76356
2.69289
2.66779
2.74234
2.99844
3.62535
4.60159
5.20003
5.24273
5.1563
5.07068
5.02342
4.99552
4.96376
4.91971
4.85965
4.77974
4.68023
4.55967
4.42217
4.27064
4.10785
3.95064
3.7975
3.64603
3.51749
3.38339
3.25397
3.12666
3.01321
2.91088
2.80726
2.70823
2.62114
2.54121
2.47109
2.40025
2.33116
2.26169
2.19809
2.12781
2.07175
2.03338
2.03526
2.06472
2.15123
2.33828
2.67669
3.1524
3.77445
4.11675
4.115
3.97845
3.85461
3.80492
3.80537
3.81049
3.81073
3.80277
3.77293
3.73212
3.69408
3.66147
3.63178
3.60185
3.57108
3.53916
3.50752
3.477
3.44653
3.4154
3.38311
3.34932
3.31305
3.27525
3.23678
3.1976
3.15809
3.11788
3.07676
3.03295
2.98136
2.94281
6.34286
6.05021
5.72674
5.4141
5.09178
4.80332
4.59263
4.38274
4.20237
4.06591
3.91622
3.75122
3.57865
3.42425
3.27315
3.12884
2.97511
2.84522
2.80836
2.84205
3.05683
3.65895
4.63206
5.36538
5.46185
5.34149
5.20956
5.12255
5.06982
5.02785
4.98514
4.93929
4.88571
4.82046
4.73712
4.63671
4.51444
4.37793
4.22738
4.07687
3.92118
3.77734
3.63234
3.48781
3.35671
3.23883
3.12214
3.011
2.89903
2.80073
2.71099
2.62444
2.54487
2.47203
2.40194
2.32992
2.25578
2.17989
2.11132
2.05117
2.01898
1.98866
2.01127
2.07394
2.20836
2.43475
2.81068
3.31644
3.83924
4.04672
3.98373
3.85214
3.76847
3.73933
3.75186
3.7711
3.76199
3.73046
3.68867
3.64664
3.61246
3.58465
3.55749
3.52901
3.49858
3.46733
3.43644
3.40586
3.37373
3.33892
3.30136
3.26132
3.22095
3.18025
3.13938
3.09865
3.05754
3.01336
2.96102
2.92155
6.3551
6.1281
5.85012
5.54032
5.22809
4.91253
4.68304
4.47215
4.28089
4.13438
3.99304
3.83341
3.6625
3.501
3.35318
3.20152
3.05289
2.97913
2.99101
3.15634
3.68746
4.64554
5.52951
5.70639
5.56581
5.40155
5.28295
5.19893
5.12357
5.05989
5.00584
4.95566
4.90222
4.84234
4.77036
4.68564
4.58373
4.46761
4.33786
4.19517
4.04324
3.89011
3.74086
3.60808
3.47601
3.35095
3.22967
3.11188
3.00876
2.90543
2.80869
2.71963
2.6362
2.56012
2.485
2.41313
2.34043
2.26675
2.19342
2.12399
2.06506
2.01602
1.99356
1.99859
2.02266
2.09197
2.24463
2.52221
2.9293
3.47988
3.86184
3.94188
3.86007
3.76766
3.71911
3.70614
3.71219
3.70656
3.67999
3.63924
3.59753
3.56333
3.53629
3.51162
3.48568
3.45782
3.4268
3.39344
3.35944
3.32322
3.28339
3.24229
3.20134
3.1608
3.1191
3.0766
3.03436
2.99001
2.93728
2.89733
6.36387
6.1677
5.91063
5.62075
5.33221
5.02176
4.76792
4.55683
4.35935
4.19551
4.05928
3.90808
3.73911
3.56398
3.41671
3.26386
3.16706
3.15465
3.29524
3.76923
4.69635
5.69734
5.96686
5.80983
5.62942
5.49786
5.39585
5.29592
5.19761
5.11081
5.04019
4.97978
4.92051
4.85949
4.79255
4.71725
4.62954
4.52849
4.41356
4.28654
4.15192
4.01049
3.86969
3.73052
3.59358
3.46494
3.34006
3.2238
3.11046
3.00727
2.90673
2.81172
2.72566
2.64175
2.56271
2.48507
2.40663
2.32865
2.25047
2.1845
2.12922
2.07236
2.02553
1.99123
1.96461
1.98108
2.01358
2.10985
2.29873
2.61814
3.05774
3.62096
3.87908
3.88083
3.78966
3.69911
3.66257
3.65771
3.65078
3.62334
3.58832
3.55372
3.52139
3.49283
3.46642
3.43939
3.41139
3.37968
3.34387
3.30707
3.26554
3.22145
3.17861
3.13712
3.09567
3.05278
3.00942
2.96457
2.91162
2.87149
5.94231
6.19884
5.96618
5.70656
5.423
5.12889
4.84191
4.62705
4.42063
4.25959
4.113
3.97393
3.81042
3.63638
3.47817
3.36786
3.33571
3.45543
3.8913
4.79242
5.88091
6.26272
6.07257
5.86221
5.71974
5.61467
5.50612
5.38972
5.27451
5.16923
5.07925
5.00442
4.93753
4.87261
4.80543
4.73382
4.65448
4.56562
4.46613
4.35495
4.23442
4.10497
3.97129
3.83357
3.69895
3.5663
3.43692
3.31209
3.19462
3.08777
2.98791
2.89357
2.8048
2.72048
2.63898
2.55953
2.47797
2.39773
2.32242
2.25769
2.19742
2.13566
2.08352
2.03555
1.99107
1.96586
1.95734
1.96799
2.00544
2.11756
2.37624
2.72963
3.25084
3.71541
3.86284
3.79888
3.69892
3.62032
3.58233
3.57857
3.56311
3.54065
3.51281
3.47989
3.44723
3.41715
3.38872
3.35836
3.32424
3.28713
3.24672
3.20002
3.15362
3.11028
3.06808
3.02539
2.98176
2.93612
2.88248
2.84222
4.95769
6.05331
5.97974
5.76401
5.52212
5.25224
4.95301
4.71036
4.49303
4.30561
4.16692
4.03785
3.87773
3.70836
3.5849
3.54864
3.64695
4.05521
4.92841
6.09706
6.61498
6.38168
6.11965
5.95499
5.8454
5.73155
5.61259
5.48726
5.36432
5.24725
5.13922
5.04435
4.96248
4.88854
4.81696
4.74406
4.66777
4.58586
4.49641
4.39828
4.29082
4.17556
4.05316
3.92688
3.79739
3.66762
3.53984
3.41537
3.29704
3.18452
3.08006
2.9839
2.89319
2.80601
2.72267
2.63749
2.55503
2.46926
2.3935
2.31853
2.24861
2.19197
2.14169
2.08854
2.03645
1.99139
1.95626
1.93279
1.91459
1.92724
1.99826
2.15408
2.46697
2.91415
3.4874
3.77041
3.78097
3.69149
3.59506
3.53496
3.5079
3.50241
3.49344
3.46766
3.42909
3.39199
3.35948
3.33054
3.29952
3.26214
3.22146
3.17528
3.12666
3.08064
3.03738
2.99498
2.95159
2.90565
2.85162
2.81171
3.80068
5.47067
6.03175
5.83837
5.59308
5.32971
5.05265
4.79076
4.58653
4.37833
4.22135
4.0895
3.93143
3.81628
3.768
3.86936
4.26908
5.12722
6.36792
6.98414
6.71214
6.40151
6.20725
6.08568
5.96316
5.83794
5.70962
5.58013
5.45196
5.32641
5.20586
5.09416
4.99465
4.90736
4.82757
4.75069
4.67299
4.59306
4.50943
4.42043
4.32505
4.2226
4.1129
3.99716
3.8762
3.75169
3.62608
3.50258
3.38188
3.26565
3.15663
3.05531
2.9635
2.87362
2.78536
2.69683
2.61088
2.52577
2.445
2.36919
2.30492
2.25089
2.19833
2.14501
2.09392
2.04731
2.00017
1.95429
1.90852
1.87399
1.85463
1.91399
2.04096
2.25993
2.62232
3.14184
3.60673
3.74967
3.69694
3.58221
3.50195
3.45856
3.44407
3.42633
3.40207
3.37272
3.34073
3.31198
3.27513
3.23027
3.18496
3.14048
3.09536
3.04921
3.0038
2.96026
2.9164
2.87075
2.81801
2.77904
2.48004
4.25041
5.60155
5.80128
5.60061
5.38002
5.1417
4.8885
4.67067
4.47285
4.27811
4.14009
4.02725
3.98867
4.09258
4.5091
5.39627
6.71106
7.37745
7.07787
6.7358
6.51095
6.37036
6.23119
6.0917
5.95314
5.81721
5.68284
5.54897
5.41639
5.28698
5.16224
5.04576
4.94077
4.84655
4.76002
4.67744
4.59569
4.51313
4.42879
4.34074
4.24792
4.14937
4.04453
3.93436
3.81944
3.70094
3.58214
3.46506
3.35228
3.24476
3.14265
3.0467
2.95598
2.86408
2.77387
2.68338
2.59866
2.5147
2.43646
2.37146
2.31092
2.25029
2.19418
2.14141
2.08723
2.03617
1.98508
1.932
1.8797
1.84716
1.84302
1.86843
1.94491
2.09899
2.42109
2.82067
3.33827
3.60214
3.62972
3.57117
3.47507
3.39935
3.35986
3.3548
3.33614
3.31115
3.28436
3.24494
3.19498
3.14583
3.10151
3.05936
3.01613
2.9703
2.92567
2.88161
2.83564
2.78429
2.7462
1.64725
3.00036
4.74864
5.6716
5.63943
5.45597
5.25487
5.0202
4.78316
4.57065
4.34269
4.22842
4.21984
4.31214
4.74387
5.69162
7.11336
7.84781
7.50963
7.11356
6.84877
6.68674
6.53121
6.3771
6.21944
6.06737
5.92176
5.77961
5.63928
5.50029
5.36363
5.23047
5.10251
4.98262
4.87294
4.77357
4.68214
4.59601
4.51232
4.42881
4.34434
4.25761
4.16722
4.0723
3.97212
3.8667
3.75703
3.64488
3.53316
3.42334
3.31652
3.21301
3.11234
3.01514
2.92049
2.82644
2.73167
2.6421
2.56094
2.4865
2.41871
2.35372
2.29444
2.23889
2.18548
2.13499
2.08551
2.03552
1.98621
1.93349
1.87805
1.83882
1.82547
1.83356
1.88874
1.98512
2.185
2.48939
2.95019
3.42225
3.60333
3.56673
3.45869
3.35419
3.29894
3.27171
3.25496
3.23253
3.20698
3.16582
3.11216
3.06196
3.01667
2.97491
2.93192
2.88786
2.84488
2.79893
2.74798
2.71053
1.23765
2.09096
3.67069
5.15483
5.69293
5.56633
5.34224
5.12311
4.88342
4.63227
4.46994
4.40721
4.5497
5.0101
6.02307
7.56935
8.38508
8.00491
7.53445
7.21504
7.03356
6.86926
6.70439
6.5299
6.35467
6.18956
6.03229
5.87998
5.73096
5.5853
5.44215
5.30227
5.16607
5.03489
4.91145
4.79729
4.69217
4.59629
4.50806
4.42414
4.3413
4.25788
4.17248
4.08389
3.99117
3.89422
3.79376
3.69071
3.58751
3.48462
3.38366
3.28419
3.18726
3.09083
2.99592
2.89981
2.80264
2.70846
2.62252
2.55034
2.47814
2.41281
2.35294
2.2962
2.24084
2.18733
2.13467
2.08373
2.03416
1.98114
1.92768
1.8751
1.83352
1.81732
1.82034
1.80757
1.87156
2.01848
2.30448
2.69883
3.17913
3.44905
3.46966
3.41506
3.32337
3.25027
3.20214
3.1757
3.14921
3.11861
3.07917
3.03218
2.98406
2.93622
2.89147
2.84778
2.80604
2.76315
2.71297
2.67496
1.03709
1.37692
2.46262
4.02942
5.25665
5.54451
5.36043
5.15935
4.93852
4.73539
4.66269
4.76338
5.26397
6.35312
8.01253
8.88433
8.47818
7.96359
7.59648
7.39049
7.21719
7.03615
6.85016
6.65724
6.4748
6.30155
6.13475
5.97323
5.81674
5.66453
5.51591
5.37075
5.22905
5.09152
4.95916
4.8335
4.7148
4.6052
4.50767
4.41951
4.33567
4.25302
4.16994
4.08503
3.99716
3.90607
3.81273
3.71841
3.62339
3.52932
3.4344
3.34023
3.24464
3.14916
3.05241
2.95327
2.85363
2.75721
2.67025
2.59443
2.52756
2.46338
2.40195
2.34231
2.2855
2.22897
2.17466
2.12291
2.07446
2.02996
1.984
1.93879
1.89241
1.85073
1.80378
1.78513
1.76999
1.82521
1.914
2.07629
2.36719
2.8132
3.19665
3.37369
3.36496
3.29414
3.19868
3.123
3.07435
3.04606
3.02029
2.98798
2.94813
2.90214
2.85207
2.80651
2.76517
2.72378
2.6741
2.63595
1.0145
1.04799
1.58707
2.7853
4.33222
5.28127
5.37015
5.20265
5.00899
4.924
5.04187
5.58698
6.75531
8.53864
9.43712
8.97727
8.41721
8.01494
7.78679
7.60701
7.40771
7.20314
6.99531
6.79629
6.60492
6.419
6.23948
6.0672
5.9017
5.7419
5.58662
5.43508
5.28733
5.1436
5.0045
4.87091
4.74328
4.62282
4.51274
4.41651
4.3296
4.24586
4.16284
4.07915
3.99389
3.90709
3.81982
3.73268
3.64665
3.56014
3.47337
3.38489
3.29507
3.20299
3.10883
3.01098
2.91287
2.8198
2.7345
2.6585
2.58838
2.52252
2.45923
2.40002
2.34151
2.28493
2.22954
2.17646
2.1258
2.07848
2.03223
1.98698
1.93985
1.89325
1.85173
1.8026
1.76853
1.75455
1.74823
1.7999
1.92838
2.13412
2.47894
2.90793
3.20123
3.27009
3.2297
3.13739
3.04908
2.99042
2.9566
2.92563
2.8932