/*--------------------------------*- C++ -*----------------------------------*\
| =========                 |                                                 |
| \\      /  F ield         | OpenFOAM: The Open Source CFD Toolbox           |
|  \\    /   O peration     | Version:  v2106                                 |
|   \\  /    A nd           | Website:  www.openfoam.com                      |
|    \\/     M anipulation  |                                                 |
\*---------------------------------------------------------------------------*/
FoamFile
{
    version     2.0;
    format      ascii;
    arch        "LSB;label=32;scalar=64";
    class       surfaceScalarField;
    location    "13";
    object      phi;
}
// * * * * * * * * * * * * * * * * * * * * * * * * * * * * * * * * * * * * * //

dimensions      [1 0 -1 0 0 0 0];

oriented        oriented;

internalField   nonuniform List<scalar> 
10325
(
0.0084507
2.49366e-17
0.0084507
-3.63397e-16
0.0084507
-2.1539e-15
0.0084507
-3.26696e-14
0.0084507
-1.92615e-13
0.0084507
-2.11907e-12
0.0084507
6.91469e-12
0.0084507
1.49513e-11
0.00845063
4.1361e-10
0.00845038
2.85481e-09
0.00844553
3.04505e-08
0.00841638
2.89418e-07
0.00810436
2.75976e-06
0.00713049
2.35009e-05
0.006272
8.02763e-05
0.00713752
0.000903201
0.00693944
0.000505516
0.00634447
0.000594803
0.00564131
0.000643332
0.00498651
0.000694504
0.00417166
0.000818357
0.00325371
0.000920282
0.00226548
0.000995114
0.00120404
0.0010679
0.00121074
0.0084507
-1.13164e-16
0.0084507
4.47233e-16
0.0084507
1.50848e-15
0.0084507
-4.36106e-14
0.0084507
1.94397e-14
0.0084507
-6.94602e-12
0.0084507
1.90982e-11
0.0084507
-8.59139e-11
0.00845063
8.77629e-10
0.00845039
3.39414e-10
0.00844569
5.52407e-08
0.00841745
3.72428e-07
0.00811339
5.2565e-06
0.00714414
4.9034e-05
0.00626877
0.000173418
0.00704588
0.00184241
0.00691134
0.000991535
0.00633144
0.00117585
0.00562054
0.00129353
0.00494308
0.00142667
0.00411606
0.00165311
0.00321012
0.00182991
0.00221393
0.00199872
0.00112819
0.00216197
0.00234719
0.0084507
-5.48877e-17
0.0084507
1.97355e-15
0.0084507
1.0886e-14
0.0084507
1.12518e-13
0.0084507
9.21633e-13
0.0084507
-1.20592e-11
0.0084507
1.18479e-10
0.0084507
-4.49528e-10
0.00845063
3.05147e-09
0.00845043
-1.07214e-08
0.00844582
4.51109e-08
0.00841996
4.87987e-07
0.00814356
-1.30507e-05
0.00719561
7.90237e-05
0.00629899
0.000269729
0.00694037
0.00280268
0.00688159
0.00151961
0.00627514
0.00178582
0.00552211
0.0019968
0.00484688
0.00216116
0.00405838
0.00245485
0.00316944
0.00272689
0.00216891
0.00301245
0.00110314
0.0032424
0.00346818
0.0084507
2.06622e-16
0.0084507
-4.7198e-16
0.0084507
7.68501e-15
0.0084507
5.11157e-14
0.0084507
4.51415e-13
0.0084507
-2.53618e-12
0.0084507
9.51623e-11
0.0084507
-6.24715e-11
0.00845065
2.87498e-09
0.00845026
5.92959e-09
0.00844662
6.86301e-08
0.00841632
1.31366e-06
0.00816423
-1.33706e-05
0.00723544
0.00010479
0.00631621
0.000368198
0.00670684
0.00381541
0.00678849
0.00210488
0.006161
0.002427
0.00543837
0.0026781
0.00480521
0.00284897
0.00403825
0.00323805
0.00314844
0.00362388
0.00217737
0.00399281
0.00112384
0.0043116
0.00460801
0.0084507
9.96409e-16
0.0084507
-1.67921e-15
0.0084507
7.70347e-15
0.0084507
-5.47999e-14
0.0084507
3.85981e-13
0.0084507
-1.68806e-13
0.0084507
3.31423e-11
0.0084507
7.10175e-11
0.00845066
2.2997e-09
0.00845034
7.461e-09
0.00844739
1.48916e-07
0.00842229
1.03689e-06
0.00819773
7.57341e-06
0.00729968
0.00011811
0.00635658
0.000456607
0.00650455
0.0047954
0.00665683
0.00290081
0.00602956
0.00307843
0.00534756
0.00333107
0.00473384
0.00351939
0.00397731
0.00401648
0.0031385
0.004479
0.00220745
0.00493909
0.00114009
0.00540028
0.00577679
0.0084507
8.53836e-16
0.0084507
-8.03936e-16
0.0084507
8.48459e-15
0.0084507
-4.93231e-14
0.0084507
5.16661e-13
0.0084507
6.78934e-14
0.0084507
3.94696e-11
0.0084507
1.10305e-10
0.00845067
2.63303e-09
0.0084504
1.11621e-08
0.00844806
1.74844e-07
0.00842847
-5.9716e-07
0.00825955
1.1389e-05
0.00744048
0.000116417
0.00651503
0.000456766
0.00641365
0.00556212
0.00669364
0.00401574
0.00604228
0.0037635
0.00530618
0.00405289
0.00471472
0.00418935
0.00401521
0.00474234
0.00320794
0.00529472
0.00226343
0.00589729
0.00120115
0.00648819
0.00700995
0.0084507
-5.52943e-17
0.0084507
1.76454e-17
0.0084507
4.93908e-15
0.0084507
6.70281e-15
0.0084507
1.8908e-13
0.0084507
1.70522e-12
0.0084507
1.31363e-11
0.0084507
1.60588e-10
0.00845068
1.90496e-09
0.00845046
2.76056e-09
0.0084487
2.83349e-07
0.00843474
-4.00274e-06
0.00831441
1.14533e-05
0.00759534
9.74858e-05
0.00672499
0.00030296
0.00661467
0.00555807
0.00720468
0.00555776
0.00641272
0.00457322
0.00557593
0.00487905
0.00493171
0.00493223
0.00418945
0.00552768
0.00342586
0.00609764
0.00250491
0.00684718
0.00140264
0.00762537
0.00845804
0.0084507
-1.30565e-16
0.0084507
4.93068e-16
0.0084507
-5.19138e-15
0.0084507
1.29545e-14
0.0084507
1.86647e-13
0.0084507
-4.0356e-12
0.0084507
1.96838e-11
0.0084507
7.78744e-11
0.00845069
1.30462e-09
0.00845055
-3.17965e-09
0.00844937
2.28905e-07
0.00843694
-2.73848e-06
0.00835008
8.57925e-06
0.00772897
7.45922e-05
0.0068144
0.000170167
0.00697906
0.00462446
0.00787022
0.0071205
0.00690247
0.00552337
0.00602119
0.00570104
0.0053138
0.00573169
0.00452286
0.00634778
0.00367251
0.00698994
0.00272077
0.00781079
0.00155625
0.00881257
0.0101146
0.0084507
7.58942e-19
0.0084507
2.527e-16
0.0084507
-5.01839e-15
0.0084507
1.85025e-14
0.0084507
-2.03118e-13
0.0084507
-4.9202e-12
0.0084507
3.03476e-11
0.0084507
2.23172e-11
0.00845069
1.04199e-09
0.00845059
4.75209e-09
0.00844986
7.56666e-08
0.00843892
5.03325e-07
0.00837475
6.02873e-06
0.00784058
5.8755e-05
0.00680604
0.000192725
0.0071494
0.00334061
0.00877245
0.00809804
0.00773317
0.00653886
0.00680446
0.00656343
0.00594653
0.00667104
0.00516888
0.00717162
0.00438589
0.00783756
0.00340355
0.00886248
0.00234091
0.00992315
0.0126026
0.0084507
1.27367e-16
0.0084507
-2.74764e-16
0.0084507
2.74447e-15
0.0084507
-7.70103e-15
0.0084507
1.83425e-13
0.0084507
1.22125e-12
0.0084507
5.60615e-12
0.0084507
5.69155e-11
0.0084507
5.71362e-10
0.00845059
5.66343e-09
0.00845019
5.00539e-08
0.00844262
4.64156e-07
0.00839807
4.22177e-06
0.00795854
4.72538e-05
0.00690451
0.000256418
0.0069786
0.00231939
0.00909682
0.0085018
0.0085764
0.00701949
0.0078265
0.00726248
0.00685197
0.00768389
0.00596798
0.00807675
0.00512278
0.00874163
0.00407529
0.00993071
0.00254036
0.0114869
0.0156617
0.0084507
8.99346e-17
0.0084507
2.17355e-16
0.0084507
5.17365e-15
0.0084507
4.39877e-14
0.0084507
3.39984e-13
0.0084507
2.24813e-12
0.0084507
-8.23213e-12
0.0084507
2.11088e-10
0.0084507
-4.09705e-10
0.00845061
8.44955e-09
0.00845043
-4.55472e-08
0.00844443
4.99317e-07
0.00841378
3.84412e-06
0.00809206
3.2896e-06
0.00712384
0.000281438
0.00682414
0.00167973
0.00893042
0.00854035
0.00876433
0.00733865
0.008431
0.00762146
0.00769327
0.00841948
0.00698903
0.00881257
0.00617859
0.00964045
0.00565575
0.0106092
0.0054231
0.0120492
0.0132254
0.0085589
0.0084507
6.64074e-18
0.0084507
3.2293e-16
0.0084507
2.20454e-15
0.0084507
2.8634e-14
0.0084507
1.12049e-13
0.0084507
1.42821e-12
0.0084507
5.05054e-12
0.0084507
-1.21306e-10
0.0084507
2.45867e-10
0.00845065
8.26039e-09
0.00845022
-4.99881e-08
0.00844668
5.85717e-07
0.00842392
-7.9898e-06
0.00819367
-1.25641e-06
0.00732078
0.000257648
0.00677403
0.00126563
0.00848302
0.00826187
0.00891436
0.00773413
0.0088336
0.0077819
0.00837828
0.00881231
0.00788213
0.00932937
0.00740052
0.0101804
0.00742562
0.0105869
0.00777012
0.0115246
0.011816
0.0100968
0.0084507
-1.7293e-17
0.0084507
1.79517e-16
0.0084507
-1.69813e-16
0.0084507
9.4234e-15
0.0084507
2.28739e-14
0.0084507
3.83242e-13
0.0084507
4.94207e-12
0.0084507
-2.5274e-10
0.0084507
5.82789e-10
0.00845068
4.83664e-09
0.00845042
5.7427e-09
0.00844867
4.26858e-07
0.00843191
-1.00344e-05
0.00827873
2.22067e-05
0.00753739
0.00018498
0.00685951
0.000920416
0.00781375
0.00772858
0.00873971
0.00848025
0.00863776
0.00795344
0.00869057
0.00873668
0.00854153
0.00942989
0.00842387
0.0103041
0.00858543
0.0105896
0.00907511
0.0109634
0.0109345
0.0106004
0.0084507
1.02186e-17
0.0084507
-5.52943e-18
0.0084507
5.20092e-16
0.0084507
1.04498e-15
0.0084507
3.09873e-14
0.0084507
1.25124e-13
0.0084507
-4.72804e-13
0.0084507
4.15341e-11
0.0084507
-9.77053e-12
0.00845068
2.90498e-09
0.00845067
6.21678e-09
0.00844943
1.74269e-07
0.00843365
8.57252e-07
0.00835796
1.04106e-05
0.00781483
0.000109493
0.0070911
0.000522787
0.00791833
0.00589461
0.00920367
0.0098381
0.00882187
0.00835323
0.00882225
0.00871016
0.00892746
0.00932138
0.00916922
0.0101096
0.00952326
0.0104005
0.00993785
0.010639
0.0103932
0.0109323
0.0084507
1.1086e-17
0.0084507
-7.18284e-18
0.0084507
8.93979e-16
0.0084507
4.00979e-15
0.0084507
4.16097e-14
0.0084507
5.15451e-13
0.0084507
1.94699e-12
0.0084507
1.18084e-11
0.0084507
6.24305e-11
0.0084507
1.20718e-09
0.00845059
6.92103e-09
0.00845017
8.83998e-08
0.00844243
6.4479e-07
0.00839667
6.78265e-06
0.00796403
7.40768e-05
0.00704014
0.000416123
0.00783258
0.00397566
0.0100523
0.010578
0.00945742
0.00906443
0.0091964
0.00894228
0.00923587
0.00928938
0.00953841
0.00987759
0.0099833
0.0101195
0.0104268
0.010309
0.0098361
0.0113108
0.0084507
2.1413e-18
0.0084507
5.99022e-17
0.0084507
2.13452e-16
0.0084507
5.68038e-15
0.0084507
2.18249e-14
0.0084507
4.59598e-13
0.0084507
2.60585e-12
0.0084507
-5.91466e-12
0.0084507
1.71681e-10
0.0084507
1.01548e-10
0.00845063
8.68327e-09
0.00845042
3.19897e-08
0.00844549
5.69851e-07
0.00842004
3.82289e-06
0.0081327
4.43342e-05
0.00724381
0.000364291
0.0075061
0.0025135
0.0103564
0.00982641
0.0102592
0.00973869
0.00985841
0.00949408
0.00967029
0.00949382
0.00981524
0.00975728
0.0102176
0.00980186
0.0107097
0.00991253
0.00940983
0.0113776
0.0084507
7.86047e-19
0.0084507
4.39102e-18
0.0084507
-5.04154e-18
0.0084507
2.487e-15
0.0084507
6.44902e-15
0.0084507
1.50763e-13
0.0084507
8.68763e-13
0.0084507
-3.2581e-13
0.0084507
1.2763e-10
0.0084507
1.6964e-10
0.00845067
5.95114e-09
0.0084504
2.46681e-08
0.00844811
3.60269e-07
0.00842869
2.49065e-06
0.00827581
2.45963e-05
0.00756356
0.000246359
0.00739981
0.00146466
0.00950355
0.00836434
0.0105677
0.0103045
0.0103401
0.0098839
0.0101
0.00969151
0.0100897
0.00973592
0.0103366
0.00962282
0.0107795
0.00957846
0.00910623
0.0112796
0.0084507
1.38236e-18
0.0084507
2.40422e-17
0.0084507
3.6974e-16
0.0084507
-1.14616e-15
0.0084507
1.1674e-14
0.0084507
4.93804e-14
0.0084507
7.27275e-13
0.0084507
7.80141e-12
0.0084507
9.45727e-12
0.0084507
3.39879e-10
0.0084507
1.52403e-09
0.00845049
1.94875e-08
0.00845009
1.63532e-07
0.0084379
7.96667e-07
0.0083758
1.74473e-05
0.00801677
-8.59131e-05
0.00742707
0.000972908
0.00870185
0.0059712
0.0109103
0.0109378
0.0107363
0.0101342
0.0105901
0.00982863
0.0105617
0.00977211
0.0106905
0.00958359
0.0109747
0.00939853
0.0089232
0.0113229
0.0084507
8.67362e-19
0.0084507
4.68917e-18
0.0084507
2.19171e-16
0.0084507
-9.40871e-16
0.0084507
1.31048e-15
0.0084507
2.17944e-14
0.0084507
7.35033e-14
0.0084507
4.54813e-12
0.0084507
1.13526e-11
0.0084507
1.17798e-10
0.00845069
8.54732e-10
0.00845063
4.36083e-09
0.00845006
7.01179e-08
0.00844481
5.37012e-08
0.00840619
9.99902e-06
0.00809156
-0.000141988
0.00736059
0.000617465
0.00837456
0.00368045
0.0113509
0.0104038
0.0113976
0.010575
0.0112021
0.0102565
0.0110323
0.00996171
0.0110117
0.00964599
0.0111451
0.00934075
0.00882369
0.0113748
0.0084507
-1.6263e-18
0.0084507
1.65341e-17
0.0084507
1.18395e-16
0.0084507
-7.05274e-17
0.0084507
4.76686e-15
0.0084507
2.90449e-14
0.0084507
3.60565e-13
0.0084507
5.22332e-12
0.0084507
3.01436e-12
0.0084507
2.07097e-10
0.0084507
5.57213e-10
0.00845058
1.23918e-08
0.00845067
9.65679e-08
0.00845043
2.83951e-07
0.00842085
2.42328e-06
0.008175
3.57686e-05
0.00774394
-0.000160839
0.00816824
0.00214964
0.0108017
0.00870211
0.0119536
0.0111717
0.011725
0.0107417
0.0115283
0.010139
0.0114296
0.00976965
0.01144
0.00939447
0.00884716
0.0115267
0.0084507
-2.11419e-18
0.0084507
6.07153e-18
0.0084507
6.31006e-17
0.0084507
-6.45913e-17
0.0084507
1.14581e-15
0.0084507
1.81338e-14
0.0084507
1.07372e-13
0.0084507
3.77236e-12
0.0084507
4.2668e-13
0.0084507
1.14137e-10
0.0084507
8.39746e-11
0.00845069
5.3951e-09
0.00845058
5.22232e-08
0.00844965
1.00587e-07
0.00844146
-4.60598e-08
0.00838561
1.68021e-05
0.00798348
-0.000318752
0.0074899
0.00130052
0.00917107
0.00586918
0.0119642
0.0113062
0.0118628
0.0108064
0.0119002
0.0102784
0.0118056
0.00989779
0.0117676
0.00947921
0.00893387
0.0117679
0.0084507
-1.6263e-19
0.0084507
3.60497e-18
0.0084507
2.38524e-18
0.0084507
1.17256e-16
0.0084507
2.59799e-15
0.0084507
2.78583e-15
0.0084507
8.67076e-14
0.0084507
2.14629e-13
0.0084507
5.38922e-12
0.0084507
1.45351e-11
0.0084507
3.19984e-10
0.0084507
1.29868e-09
0.00845058
1.89498e-08
0.00845069
1.55722e-07
0.00845027
3.64328e-07
0.00840004
6.68461e-06
0.00795315
6.72592e-05
0.00776448
-0.000178998
0.00907596
0.0035935
0.0123022
0.00996565
0.0128132
0.0113173
0.0126077
0.0107388
0.0123846
0.0101936
0.0122137
0.00968363
0.0091126
0.0121011
0.0084507
-2.71051e-20
0.0084507
3.00866e-18
0.0084507
-5.80048e-18
0.0084507
8.61941e-18
0.0084507
1.84341e-15
0.0084507
5.05048e-16
0.0084507
3.82892e-14
0.0084507
1.15125e-14
0.0084507
3.11005e-12
0.0084507
2.33283e-12
0.0084507
1.59951e-10
0.0084507
3.24762e-10
0.00845068
7.2175e-09
0.00845051
8.43891e-08
0.00844897
7.09978e-08
0.0084367
2.34212e-06
0.00833966
4.08498e-05
0.0079057
-0.000478176
0.00803297
0.0019024
0.010602
0.00733525
0.0128098
0.0115957
0.0127267
0.0109804
0.0126651
0.0103411
0.0125447
0.00987175
0.00929904
0.0124305
0.0084507
-1.0842e-19
0.0084507
4.25549e-18
0.0084507
-4.22839e-18
0.0084507
1.64257e-17
0.0084507
2.71484e-16
0.0084507
1.04962e-15
0.0084507
1.93669e-14
0.0084507
1.00758e-13
0.0084507
3.73559e-13
0.0084507
7.16765e-12
0.0084507
2.64003e-11
0.0084507
4.84845e-10
0.0084507
1.64507e-09
0.00845053
3.06679e-08
0.00845058
2.46928e-07
0.00845203
7.61606e-07
0.00839992
1.01816e-05
0.00784742
8.00736e-05
0.00779964
-8.36376e-05
0.00961156
0.00457282
0.0131005
0.010544
0.0133696
0.0112969
0.0131978
0.0107951
0.0129949
0.0101408
0.00953667
0.0128202
0.0084507
-3.25261e-19
0.0084507
3.82181e-18
0.0084507
-6.31548e-18
0.0084507
1.00018e-17
0.0084507
8.67904e-17
0.0084507
2.85091e-16
0.0084507
6.69999e-15
0.0084507
3.17175e-14
0.0084507
1.93549e-13
0.0084507
2.53554e-12
0.0084507
6.80724e-12
0.0084507
1.76219e-10
0.0084507
-1.03328e-10
0.00845068
1.23018e-08
0.00845045
1.30363e-07
0.00844854
2.32443e-07
0.00843408
1.52766e-06
0.00832203
3.95544e-05
0.00794918
-0.000568436
0.00846471
0.00246836
0.0116466
0.00807511
0.0135297
0.0115255
0.0133534
0.0111662
0.0133067
0.0102746
0.00977435
0.0131559
0.0084507
2.43945e-19
0.0084507
2.1684e-19
0.0084507
3.52366e-19
0.0084507
1.6263e-18
0.0084507
6.42661e-17
0.0084507
3.57841e-16
0.0084507
4.78816e-15
0.0084507
3.28612e-14
0.0084507
2.9194e-14
0.0084507
1.68554e-12
0.0084507
8.16946e-12
0.0084507
1.12046e-10
0.0084507
9.65484e-10
0.00845071
2.37549e-09
0.00845047
4.75256e-08
0.00845004
1.78236e-07
0.0084319
2.75272e-06
0.00846561
1.49863e-05
0.00780661
9.10695e-05
0.0078534
7.37466e-05
0.00994348
0.00507929
0.0135634
0.0104418
0.0138794
0.0113222
0.0137052
0.0107656
0.0100498
0.0134842
0.0084507
5.42101e-20
0.0084507
5.42101e-20
0.0084507
1.6263e-19
0.0084507
7.58942e-19
0.0084507
2.23617e-17
0.0084507
1.79679e-16
0.0084507
1.95173e-15
0.0084507
1.58374e-14
0.0084507
-1.61118e-15
0.0084507
4.87128e-13
0.0084507
3.70852e-12
0.0084507
3.65364e-11
0.0084507
5.51784e-10
0.0084507
5.70646e-10
0.00845067
2.1385e-08
0.0084504
3.81453e-08
0.00844873
1.09761e-06
0.00843306
4.45301e-06
0.00831465
4.08383e-05
0.00806
-0.000582631
0.0088117
0.00276556
0.0121723
0.00810677
0.0140833
0.0113932
0.0139001
0.011152
0.0102471
0.0138055
0.0084507
1.43657e-18
0.0084507
-2.05998e-18
0.0084507
3.90313e-18
0.0084507
-3.2255e-18
0.0084507
1.39591e-17
0.0084507
4.42897e-17
0.0084507
5.82054e-16
0.0084507
3.3703e-15
0.0084507
3.5548e-14
0.0084507
3.09157e-13
0.0084507
9.57579e-13
0.0084507
1.37876e-11
0.0084507
6.85266e-11
0.0084507
7.79585e-10
0.00845071
3.89178e-09
0.00845042
4.89687e-08
0.00845048
2.55541e-07
0.00843311
3.17826e-06
0.00847768
1.61967e-05
0.00779381
0.000101307
0.00790057
0.000220358
0.0100984
0.00507811
0.0138479
0.0101336
0.0143155
0.0111921
0.0107553
0.0141223
0.0084507
9.48677e-19
0.0084507
-2.6834e-18
0.0084507
3.06287e-18
0.0084507
-5.50233e-18
0.0084507
7.58942e-18
0.0084507
1.40133e-17
0.0084507
2.36356e-16
0.0084507
1.12874e-15
0.0084507
1.36457e-14
0.0084507
1.54431e-13
0.0084507
2.76951e-13
0.0084507
5.49692e-12
0.0084507
1.8004e-11
0.0084507
3.32548e-10
0.0084507
9.83875e-10
0.00845067
1.97596e-08
0.00845042
6.22139e-08
0.00844889
1.19433e-06
0.00843367
5.37684e-06
0.00831731
4.69315e-05
0.00815283
-0.00052756
0.00898469
0.00272557
0.0122619
0.00785191
0.0143282
0.0111688
0.0110012
0.0142282
0.0084507
-1.35525e-19
0.0084507
-1.6263e-19
0.0084507
-1.80768e-49
0.0084507
-1.40946e-18
0.0084507
-1.89735e-19
0.0084507
1.28478e-17
0.0084507
8.95822e-17
0.0084507
3.02953e-16
0.0084507
4.41015e-15
0.0084507
2.13993e-14
0.0084507
2.21692e-13
0.0084507
1.0988e-12
0.0084507
1.34112e-11
0.0084507
7.30215e-11
0.0084507
7.90851e-10
0.00845071
4.69111e-09
0.0084505
4.81849e-08
0.00845067
3.1746e-07
0.00843868
3.0834e-06
0.00848274
1.83495e-05
0.00787496
7.91932e-05
0.00771998
0.000660943
0.00986363
0.00463369
0.0137312
0.00953923
0.0109879
0.0144531
0.0084507
1.35525e-19
0.0084507
-1.35525e-19
0.0084507
1.80556e-35
0.0084507
2.43945e-19
0.0084507
-1.0842e-18
0.0084507
4.41812e-18
0.0084507
2.54516e-17
0.0084507
1.1891e-16
0.0084507
8.51559e-16
0.0084507
6.67682e-15
0.0084507
4.15438e-14
0.0084507
2.19598e-13
0.0084507
3.8527e-12
0.0084507
1.77489e-11
0.0084507
2.25093e-10
0.0084507
1.1254e-09
0.0084507
1.2608e-08
0.0084505
1.10781e-07
0.0084504
9.99184e-07
0.00843715
7.52001e-06
0.00836758
2.0326e-05
0.00819752
-0.000135365
0.00905197
0.0022998
0.0120903
0.00701014
0.0107506
0.0145061
0.0084507
-2.43945e-19
0.0084507
-6.77626e-19
0.0084507
-3.25261e-19
0.0084507
-8.13152e-20
0.0084507
-2.43945e-19
0.0084507
-4.87891e-19
0.0084507
7.67073e-18
0.0084507
5.48335e-17
0.0084507
5.10036e-16
0.0084507
4.39858e-15
0.0084507
3.68137e-14
0.0084507
3.24979e-13
0.0084507
7.92394e-13
0.0084507
1.58187e-11
0.0084507
6.93955e-11
0.0084507
1.00785e-09
0.00845071
5.10398e-09
0.00845079
2.82842e-08
0.00845019
2.62199e-07
0.00845514
1.71717e-06
0.00840756
1.41856e-05
0.00814367
8.92475e-05
0.00779605
0.000821056
0.00984452
0.00386606
0.00864972
0.0138954
0.0084507
-5.69206e-19
0.0084507
-5.42101e-19
0.0084507
-1.11131e-18
0.0084507
-1.54499e-18
0.0084507
-1.78893e-18
0.0084507
-1.68051e-18
0.0084507
2.60209e-18
0.0084507
9.40545e-18
0.0084507
2.77312e-16
0.0084507
1.35569e-15
0.0084507
1.89132e-14
0.0084507
1.26332e-13
0.0084507
4.05773e-13
0.0084507
3.36662e-13
0.0084507
3.25161e-11
0.0084507
2.71357e-10
0.0084507
2.57661e-09
0.00845071
5.83883e-09
0.00845052
9.69359e-08
0.00845046
3.74823e-07
0.00844082
4.79635e-06
0.00841106
2.16031e-05
0.00827705
0.000110485
0.00880191
0.00185962
0.00602372
0.0114885
0.0084507
-4.06576e-19
0.0084507
3.52366e-19
0.0084507
-1.35525e-19
0.0084507
-1.6263e-19
0.0084507
-4.87891e-19
0.0084507
-4.81482e-35
0.0084507
8.94467e-19
0.0084507
6.74916e-18
0.0084507
5.39662e-17
0.0084507
4.20508e-16
0.0084507
3.56003e-15
0.0084507
2.80818e-14
0.0084507
2.11468e-13
0.0084507
-3.65498e-12
0.0084507
1.10047e-11
0.0084507
-1.93637e-11
0.00845071
3.51829e-10
0.0084507
2.70717e-09
0.00845073
2.00361e-08
0.00845028
1.65497e-07
0.00845157
1.18236e-06
0.00842474
1.00362e-05
0.0083248
7.65448e-05
0.00793937
0.000797703
0.00306412
0.00968304
0.0084507
-1.0842e-19
0.0084507
3.79471e-19
0.0084507
9.48677e-19
0.0084507
5.14996e-19
0.0084507
5.42101e-19
0.0084507
7.86047e-19
0.0084507
1.70762e-18
0.0084507
4.14707e-18
0.0084507
1.10047e-17
0.0084507
1.20563e-16
0.0084507
6.96031e-16
0.0084507
5.11559e-15
0.0084507
6.00842e-14
0.0084507
5.18796e-14
0.0084507
2.71175e-12
0.0084507
2.06541e-11
0.0084507
3.59811e-11
0.0084507
1.14273e-09
0.00845069
3.95818e-09
0.00845058
3.96464e-08
0.00844984
1.79988e-07
0.0084429
4.71507e-06
0.0084517
-2.54309e-05
0.00843077
0.000171748
0.00106816
0.00892281
0.0084507
4.60786e-19
0.0084507
2.1684e-19
0.0084507
2.43945e-19
0.0084507
6.50521e-19
0.0084507
1.19262e-18
0.0084507
9.21572e-19
0.0084507
1.97867e-18
0.0084507
2.24972e-18
0.0084507
7.04731e-18
0.0084507
6.61363e-18
0.0084507
1.90142e-16
0.0084507
-8.22828e-16
0.0084507
3.82996e-14
0.0084507
-9.87605e-14
0.0084507
-2.3086e-14
0.0084507
6.36684e-12
0.0084507
4.18085e-11
0.0084507
3.1451e-10
0.0084507
2.75789e-09
0.00845069
9.13579e-10
0.00845048
1.06192e-07
0.00844958
3.04881e-06
0.00844061
-3.62933e-05
0.00841849
6.76052e-05
6.75272e-05
0.00835675
0.0084507
1.0842e-19
0.0084507
3.52366e-19
0.0084507
6.01853e-36
0.0084507
5.42101e-19
0.0084507
6.50521e-19
0.0084507
8.13152e-19
0.0084507
8.67362e-19
0.0084507
1.57209e-18
0.0084507
4.3097e-18
0.0084507
5.25838e-18
0.0084507
1.07634e-16
0.0084507
-2.73788e-16
0.0084507
4.47992e-15
0.0084507
2.23167e-14
0.0084507
-3.7427e-13
0.0084507
2.36175e-12
0.0084507
3.92379e-12
0.0084507
-1.52319e-11
0.00845071
-4.077e-11
0.00845073
8.35323e-10
0.00845105
-2.40554e-09
0.00845609
-7.90359e-08
0.00841898
-1.17395e-06
0.00840187
1.11593e-05
9.02701e-05
0.00832654
0.0084507
-2.43945e-19
0.0084507
1.6263e-19
0.0084507
2.71051e-20
0.0084507
4.06576e-19
0.0084507
7.04731e-19
0.0084507
1.40946e-18
0.0084507
1.21973e-18
0.0084507
2.1413e-18
0.0084507
2.24972e-18
0.0084507
2.81893e-18
0.0084507
2.04101e-17
0.0084507
2.53161e-17
0.0084507
4.87837e-16
0.0084507
4.3669e-15
0.0084507
5.88586e-16
0.0084507
3.71443e-13
0.0084507
7.98197e-13
0.0084507
1.69732e-11
0.0084507
3.41706e-11
0.0084507
-2.97164e-10
0.00845071
-1.14119e-08
0.00845044
-8.84625e-08
0.00845013
-1.17392e-06
0.00844283
2.17862e-06
1.87671e-05
0.00844341
0.0084507
4.06576e-19
0.0084507
7.86047e-19
0.0084507
8.13152e-19
0.0084507
2.43945e-19
0.0084507
4.87891e-19
0.0084507
-7.86047e-19
0.0084507
-1.32815e-18
0.0084507
-1.27394e-18
0.0084507
-2.54788e-18
0.0084507
-2.6563e-18
0.0084507
6.39679e-18
0.0084507
6.91179e-18
0.0084507
3.3285e-17
0.0084507
2.45951e-15
0.0084507
-1.28161e-14
0.0084507
9.54191e-14
0.0084507
3.4666e-13
0.0084507
3.69599e-12
0.0084507
2.77928e-11
0.00845071
1.03467e-10
0.0084507
-8.82847e-11
0.00845072
-3.07178e-10
0.00844944
-5.20507e-09
0.00844905
8.32417e-07
7.60449e-06
0.00843926
0.0084507
1.6263e-19
0.0084507
1.0842e-19
0.0084507
4.87891e-19
0.0084507
-7.31836e-19
0.0084507
-2.71051e-20
0.0084507
-1.40946e-18
0.0084507
-1.95156e-18
0.0084507
-1.89735e-18
0.0084507
-2.24972e-18
0.0084507
-2.30393e-18
0.0084507
-2.30393e-18
0.0084507
4.41812e-18
0.0084507
4.63496e-18
0.0084507
3.60606e-16
0.0084507
8.55354e-16
0.0084507
1.98718e-14
0.0084507
1.92322e-13
0.0084507
-8.38977e-13
0.0084507
5.52189e-12
0.0084507
-7.67731e-11
0.0084507
2.05327e-10
0.00845069
-2.71095e-09
0.00845072
-2.60903e-08
0.00845025
1.13027e-07
1.16023e-06
0.00845457
0.0084507
-2.43945e-19
0.0084507
-7.86047e-19
0.0084507
-3.52366e-19
0.0084507
2.71051e-20
0.0084507
3.79471e-19
0.0084507
3.79471e-19
0.0084507
6.23416e-19
0.0084507
3.79471e-19
0.0084507
5.42101e-19
0.0084507
1.02999e-18
0.0084507
2.71051e-20
0.0084507
2.27682e-18
0.0084507
-2.64816e-17
0.0084507
1.91985e-16
0.0084507
-6.17995e-16
0.0084507
1.01714e-14
0.0084507
1.02509e-13
0.0084507
-6.09079e-14
0.0084507
5.63073e-12
0.0084507
-9.14259e-12
0.0084507
1.63433e-10
0.0084507
1.72814e-09
0.00845067
3.13736e-09
0.00845055
6.76767e-08
1.32243e-07
0.00845029
0.0084507
4.60786e-19
0.0084507
4.06576e-19
0.0084507
6.50521e-19
0.0084507
8.67362e-19
0.0084507
8.94467e-19
0.0084507
6.23416e-19
0.0084507
1.0842e-18
0.0084507
9.75782e-19
0.0084507
9.21572e-19
0.0084507
1.0571e-18
0.0084507
8.67362e-19
0.0084507
1.13841e-18
0.0084507
3.87602e-18
0.0084507
2.78098e-17
0.0084507
2.40964e-16
0.0084507
9.89416e-16
0.0084507
1.7488e-14
0.0084507
2.78401e-15
0.0084507
3.15285e-13
0.0084507
-2.91355e-12
0.0084507
3.3167e-11
0.00845071
1.85183e-10
0.0084507
2.8751e-10
0.00845075
1.19722e-08
6.20877e-08
0.00845056
0.0084507
1.0842e-19
0.0084507
-1.0842e-19
0.0084507
-5.14996e-19
0.0084507
-1.32815e-18
0.0084507
-9.75782e-19
0.0084507
-9.21572e-19
0.0084507
-4.33681e-19
0.0084507
-1.89735e-19
0.0084507
-2.71051e-19
0.0084507
-2.1684e-19
0.0084507
-1.89735e-19
0.0084507
1.89735e-19
0.0084507
8.94467e-19
0.0084507
1.20346e-17
0.0084507
1.41814e-16
0.0084507
5.61048e-16
0.0084507
6.61634e-15
0.0084507
3.54726e-14
0.0084507
2.38955e-13
0.0084507
-7.58056e-13
0.0084507
1.68125e-11
0.0084507
1.38606e-10
0.0084507
1.08407e-10
0.0084507
4.46094e-09
-3.34918e-10
0.00845067
0.0084507
-4.06576e-19
0.0084507
-9.75782e-19
0.0084507
-8.40257e-19
0.0084507
-1.32815e-18
0.0084507
-1.43657e-18
0.0084507
-1.40946e-18
0.0084507
-1.30104e-18
0.0084507
-2.22261e-18
0.0084507
-2.52077e-18
0.0084507
-2.41235e-18
0.0084507
-2.49366e-18
0.0084507
-2.30393e-18
0.0084507
-3.60497e-18
0.0084507
9.75782e-19
0.0084507
2.27411e-17
0.0084507
1.83718e-16
0.0084507
1.10415e-15
0.0084507
8.83983e-15
0.0084507
4.88739e-14
0.0084507
-4.44752e-14
0.0084507
2.44506e-12
0.0084507
1.11055e-11
0.0084507
5.91788e-11
0.00845071
9.64959e-10
5.42152e-09
0.00845069
0.0084507
-1.35525e-19
0.0084507
-2.71051e-19
0.0084507
-1.6263e-19
0.0084507
-2.71051e-20
0.0084507
1.0842e-19
0.0084507
-3.79471e-19
0.0084507
-1.89735e-19
0.0084507
-1.02999e-18
0.0084507
-1.21973e-18
0.0084507
-2.00577e-18
0.0084507
-2.05998e-18
0.0084507
-1.73472e-18
0.0084507
-3.41524e-18
0.0084507
-2.71051e-20
0.0084507
5.12286e-18
0.0084507
7.42678e-17
0.0084507
2.72189e-16
0.0084507
3.49075e-15
0.0084507
1.45848e-14
0.0084507
-3.5541e-14
0.0084507
8.56131e-13
0.0084507
6.8549e-12
0.0084507
2.35762e-11
0.0084507
2.5893e-10
4.94665e-10
0.0084507
0.0084507
2.43945e-19
0.0084507
1.89735e-19
0.0084507
1.6263e-19
0.0084507
1.35525e-19
0.0084507
1.89735e-19
0.0084507
-5.96311e-19
0.0084507
-9.48677e-19
0.0084507
-1.24683e-18
0.0084507
-1.70762e-18
0.0084507
-2.05998e-18
0.0084507
-2.11419e-18
0.0084507
-2.19551e-18
0.0084507
-1.95156e-18
0.0084507
-8.94467e-19
0.0084507
-8.40257e-19
0.0084507
1.0571e-17
0.0084507
6.55671e-17
0.0084507
8.17787e-16
0.0084507
1.35373e-15
0.0084507
2.96963e-14
0.0084507
1.31314e-13
0.0084507
2.60651e-13
0.0084507
3.73392e-12
0.0084507
3.34769e-11
2.87769e-10
0.0084507
0.0084507
1.89735e-19
0.0084507
5.96311e-19
0.0084507
5.42101e-19
0.0084507
5.42101e-19
0.0084507
7.31836e-19
0.0084507
2.71051e-19
0.0084507
-3.79471e-19
0.0084507
-5.69206e-19
0.0084507
-5.42101e-19
0.0084507
-8.67362e-19
0.0084507
-8.40257e-19
0.0084507
-1.87025e-18
0.0084507
-2.38524e-18
0.0084507
-2.00577e-18
0.0084507
-3.30682e-18
0.0084507
8.13152e-20
0.0084507
1.68051e-17
0.0084507
1.03894e-16
0.0084507
-4.13217e-16
0.0084507
8.56184e-15
0.0084507
-3.4731e-14
0.0084507
7.56372e-14
0.0084507
-5.25723e-13
0.0084507
1.63113e-11
1.93015e-11
0.0084507
0.0084507
7.52316e-36
0.0084507
2.43945e-19
0.0084507
1.89735e-19
0.0084507
5.42101e-20
0.0084507
1.0842e-19
0.0084507
2.71051e-20
0.0084507
5.42101e-19
0.0084507
8.13152e-19
0.0084507
9.48677e-19
0.0084507
-8.13152e-20
0.0084507
-1.6263e-19
0.0084507
-1.5992e-18
0.0084507
-2.03288e-18
0.0084507
-2.60209e-18
0.0084507
-2.76472e-18
0.0084507
-5.42101e-20
0.0084507
-4.14978e-17
0.0084507
-1.07607e-16
0.0084507
6.06096e-16
0.0084507
-3.06932e-15
0.0084507
2.00135e-14
0.0084507
-9.5111e-13
0.0084507
-3.5151e-12
0.0084507
1.03875e-11
-2.59579e-11
0.0084507
0.0084507
-3.52366e-19
0.0084507
-7.58942e-19
0.0084507
-1.68051e-18
0.0084507
-2.03288e-18
0.0084507
-2.41235e-18
0.0084507
-2.62919e-18
0.0084507
-2.11419e-18
0.0084507
-2.24972e-18
0.0084507
-1.92446e-18
0.0084507
-1.6263e-18
0.0084507
-1.0842e-18
0.0084507
-6.77626e-19
0.0084507
-1.89735e-19
0.0084507
5.42101e-20
0.0084507
7.58942e-19
0.0084507
2.43945e-18
0.0084507
-1.24683e-17
0.0084507
-2.97613e-17
0.0084507
1.92392e-16
0.0084507
-6.17941e-16
0.0084507
7.4222e-15
0.0084507
-3.79711e-13
0.0084507
-1.4674e-12
0.0084507
7.54935e-13
-1.49144e-11
0.0084507
0.0084507
0.0084507
0.0084507
0.0084507
0.0084507
0.0084507
0.0084507
0.0084507
0.0084507
0.0084507
0.0084507
0.0084507
0.0084507
0.0084507
0.0084507
0.0084507
0.0084507
0.0084507
0.0084507
0.0084507
0.0084507
0.0084507
0.0084507
0.0084507
0.0084507
0.00286967
0.00432464
-7.95463e-05
0.00294913
-0.0016543
0.00157704
-0.00196049
0.000301298
-0.0019689
9.59753e-06
-0.00197007
5.76458e-05
-0.00247288
0.000591463
-0.00303393
0.000479983
-0.00341333
0.000313573
-0.00358665
0.000168392
-0.00362203
3.56997e-05
-0.00360443
-1.51306e-05
-0.00359192
-3.31494e-06
-0.00354165
1.47337e-05
-0.00351959
-7.27892e-06
-0.00360511
2.35657e-05
-0.00369375
5.20874e-05
-0.00374729
4.59844e-05
-0.00376221
5.13983e-06
-0.0037603
-4.69497e-07
-0.00375048
-5.93222e-06
-0.00374449
-6.86668e-06
-0.00374194
-2.61414e-06
-0.00373481
-7.13255e-07
-0.00373548
3.04957e-06
-0.00374086
-2.1814e-06
-0.00374759
4.31162e-06
-0.0037503
-2.75921e-06
-0.00375542
7.97018e-07
-0.00375955
-3.95586e-06
-0.00378368
-3.8179e-07
-0.00378944
-8.66175e-06
-0.00381114
-7.7983e-06
-0.00383512
-1.44628e-05
-0.0038028
-3.81803e-05
-0.00373092
-6.33176e-05
-0.00365227
-8.11343e-05
-0.00354698
-8.84168e-05
-0.00335046
-0.00018987
-0.0031623
-0.000187156
-0.00297289
-0.000193424
-0.00272497
-0.000236409
-0.00243093
-0.00027974
-0.00211559
-0.000297123
-0.00178283
-0.000319853
-0.00150366
-0.000275105
-0.00117885
-0.000319124
-0.000763507
-0.000403639
-0.000375843
-0.000379974
4.4798e-05
-0.000416935
0.000455249
-0.000414972
0.000816464
-0.000362293
0.00117731
-0.000362276
0.00152897
-0.000349481
0.0018631
-0.000332249
0.0021764
-0.000312255
0.00247541
-0.000292766
0.0027611
-0.000278564
0.00302269
-0.000256652
0.00325765
-0.00023201
0.00347439
-0.000212486
0.00367848
-0.000198025
0.00386783
-0.000184288
0.00404052
-0.000168989
0.00419767
-0.000154652
0.00434153
-0.000142146
0.00447405
-0.000131323
0.00459633
-0.000121244
0.00470803
-0.000111948
0.00480888
-0.000102259
0.00490067
-9.35928e-05
0.00498517
-8.59114e-05
0.00506416
-7.97859e-05
0.00513737
-7.37295e-05