/*--------------------------------*- C++ -*----------------------------------*\
| =========                 |                                                 |
| \\      /  F ield         | OpenFOAM: The Open Source CFD Toolbox           |
|  \\    /   O peration     | Version:  v2106                                 |
|   \\  /    A nd           | Website:  www.openfoam.com                      |
|    \\/     M anipulation  |                                                 |
\*---------------------------------------------------------------------------*/
FoamFile
{
    version     2.0;
    format      ascii;
    arch        "LSB;label=32;scalar=64";
    class       volScalarField;
    location    "13";
    object      T;
}
// * * * * * * * * * * * * * * * * * * * * * * * * * * * * * * * * * * * * * //

dimensions      [0 0 0 1 0 0 0];

internalField   nonuniform List<scalar> 
5250
(
1
1
1
1
1
1
1
1
1.00002
1.00016
1.00148
1.01378
1.10869
1.49796
2.77126
2.66678
2.52832
2.52069
2.56372
2.55611
2.56016
2.56825
2.56643
2.56046
2.53972
1
1
1
1
1
1
1
1
1.00002
1.00016
1.00144
1.01341
1.10605
1.48944
2.75648
2.66804
2.52574
2.51452
2.5581
2.54922
2.55355
2.56319
2.5618
2.55611
2.53524
1
1
1
1
1
1
1
1
1.00002
1.00015
1.00137
1.01277
1.10147
1.47035
2.72548
2.67382
2.51811
2.4998
2.54448
2.53541
2.54019
2.55092
2.55012
2.54484
2.52357
1
1
1
1
1
1
1
1
1.00002
1.00015
1.00133
1.01199
1.09164
1.44188
2.67132
2.68706
2.4997
2.47335
2.52062
2.51357
2.51981
2.53414
2.53604
2.53199
2.51168
1
1
1
1
1
1
1
1
1.00001
1.00012
1.00111
1.0098
1.07808
1.40305
2.4938
2.70246
2.4435
2.42426
2.47717
2.47886
2.49016
2.51028
2.51769
2.51486
2.49525
1
1
1
1
1
1
1
1
1.00001
1.0001
1.00091
1.00795
1.06442
1.35029
2.21352
2.72537
2.35616
2.35169
2.41365
2.42644
2.44968
2.48152
2.49608
2.49531
2.47561
1
1
1
1
1
1
1
1
1.00001
1.00008
1.00071
1.00605
1.04981
1.29241
1.97368
2.81415
2.26394
2.24628
2.30495
2.33859
2.38582
2.43814
2.46348
2.47007
2.44935
1
1
1
1
1
1
1
1
1.00001
1.00005
1.00048
1.00417
1.03789
1.24058
1.86155
2.98796
2.33232
2.25127
2.289
2.27945
2.31103
2.37507
2.42621
2.43985
2.4071
1
1
1
1
1
1
1
1
1
1.00004
1.00033
1.00294
1.02901
1.19718
1.74868
3.11539
2.45955
2.30302
2.30648
2.27775
2.27157
2.29814
2.36011
2.39815
2.34398
1
1
1
1
1
1
1
1
1
1.00003
1.00026
1.00237
1.02187
1.15733
1.64418
3.06661
2.51934
2.39262
2.35379
2.29915
2.2584
2.25704
2.29274
2.33866
2.19662
1
1
1
1
1
1
1
1
1
1.00002
1.0002
1.00172
1.01605
1.12266
1.53809
2.91207
2.5341
2.47071
2.41448
2.34856
2.27765
2.20827
2.19622
2.18029
1.94884
1
1
1
1
1
1
1
1
1
1.00002
1.00016
1.00144
1.01226
1.08796
1.43243
2.70129
2.5864
2.42283
2.39092
2.36947
2.31116
2.21884
2.15994
2.1224
1.80307
1
1
1
1
1
1
1
1
1
1.00001
1.00008
1.00078
1.00655
1.05553
1.32729
2.28791
2.65769
2.33738
2.3354
2.34806
2.32874
2.25651
2.14629
2.08796
1.80457
1
1
1
1
1
1
1
1
1
1
1.00004
1.00034
1.00317
1.03462
1.2272
1.84217
2.85565
2.29156
2.27522
2.30748
2.30976
2.26476
2.16341
2.06855
1.82674
1
1
1
1
1
1
1
1
1
1
1.00003
1.00028
1.00252
1.02302
1.16438
1.65808
2.92554
2.29721
2.24898
2.26554
2.27683
2.24891
2.17068
2.07309
1.88007
1
1
1
1
1
1
1
1
1
1
1.00002
1.00017
1.0015
1.01393
1.10824
1.50081
2.83938
2.3906
2.21957
2.20829
2.22565
2.21706
2.16755
2.08604
1.94605
1
1
1
1
1
1
1
1
1
1
1.00001
1.00011
1.00093
1.0081
1.06503
1.35709
2.60308
2.54892
2.22998
2.1489
2.16219
2.17728
2.15094
2.08863
1.98554
1
1
1
1
1
1
1
1
1
1
1.00001
1.00005
1.00046
1.00396
1.0354
1.2295
1.85502
2.80264
2.24468
2.15815
2.14426
2.14151
2.12155
2.07702
1.99939
1
1
1
1
1
1
1
1
1
1
1
1.00003
1.00026
1.00216
1.01871
1.13266
1.57532
2.79119
2.30842
2.17939
2.10987
2.10399
2.08906
2.05674
1.99696
1
1
1
1
1
1
1
1
1
1
1
1.00004
1.00003
1.00086
1.00742
1.0649
1.41282
2.58937
2.45928
2.1618
2.06248
2.05919
2.04945
2.02722
1.98445
1
1
1
1
1
1
1
1
1
1
1
1.00001
1.00005
1.00045
1.0037
1.03088
1.20243
1.88091
2.75627
2.18132
2.1226
2.05318
2.0308
2.0046
1.96731
1
1
1
1
1
1
1
1
1
1
1
1
1.00006
1.00001
1.00135
1.01096
1.09654
1.59186
2.67303
2.31034
2.11335
2.03137
2.00021
1.97617
1.94527
1
1
1
1
1
1
1
1
1
1
1
1
1.00001
1.00009
1.00073
1.00602
1.04763
1.27882
2.40813
2.5287
2.1255
2.04355
1.99867
1.96402
1.928
1
1
1
1
1
1
1
1
1
1
1
1
1.00001
1.00008
1.00003
1.00197
1.01313
1.10834
1.79078
2.74686
2.23679
2.09267
1.99355
1.95495
1.9156
1
1
1
1
1
1
1
1
1
1
1
1
1
1.00002
1.00012
1.00099
1.00796
1.06041
1.32883
2.54568
2.4275
2.08811
2.00452
1.95975
1.91588
1
1
1
1
1
1
1
1
1
1
1
1
1
1.00001
1.00006
1.00054
1.00541
1.00806
1.10778
1.91051
2.74805
2.20297
2.0722
1.96248
1.91969
1
1
1
1
1
1
1
1
1
1
1
1
1
1
1.00002
1.00015
1.00122
1.0091
1.0675
1.34984
2.53507
2.37672
2.05893
1.97691
1.92638
1
1
1
1
1
1
1
1
1
1
1
1
1
1
1.00001
1.00006
1.00061
1.00693
1.00708
1.10739
1.97456
2.7044
2.17543
2.04434
1.93409
1
1
1
1
1
1
1
1
1
1
1
1
1
1
1
1.00002
1.00016
1.00126
1.00918
1.06717
1.34384
2.4735
2.33287
2.01947
1.95653
1
1
1
1
1
1
1
1
1
1
1
1
1
1
1
1.00001
1.00005
1.00049
1.00537
1.00369
1.08832
1.82733
2.64395
2.15925
2.0027
1
1
1
1
1
1
1
1
1
1
1
1
1
1
1
1
1.00002
1.00012
1.00099
1.00744
1.05756
1.33258
2.41964
2.35275
2.01921
1
1
1
1
1
1
1
1
1
1
1
1
1
1
1
1
1
1.00003
1.00023
1.00169
1.01003
1.08953
1.69882
2.56606
2.178
1
1
1
1
1
1
1
1
1
1
1
1
1
1
1
1
1
1.00001
1.00009
1.00074
1.00567
1.0441
1.27705
2.23706
2.38806
1
1
1
1
1
1
1
1
1
1
1
1
1
1
1
1
1
1
1.00002
1.00017
1.00141
1.00988
1.08465
1.53501
2.41445
1
1
1
1
1
1
1
1
1
1
1
1
1
1
1
1
1
1
1.00001
1.00008
1.00061
1.00454
1.03438
1.213
1.84776
1
1
1
1
1
1
1
1
1
1
1
1
1
1
1
1
1
1
1
1.00002
1.00012
1.00093
1.00651
1.05547
1.32855
1
1
1
1
1
1
1
1
1
1
1
1
1
1
1
1
1
1
0.999999
0.999992
0.999919
0.998795
1.00012
1.01121
1.08198
1
1
1
1
1
1
1
1
1
1
1
1
1
1
1
1
1
1
1
1
1.00001
1.00005
1.00048
1.0043
1.0338
1
1
1
1
1
1
1
1
1
1
1
1
1
1
1
1
1
1
1
1
0.999996
0.999965
1
1.00071
1.00612
1
1
1
1
1
1
1
1
1
1
1
1
1
1
1
1
1
1
1
1
1
1
1.00003
1.00023
1.00185
1
1
1
1
1
1
1
1
1
1
1
1
1
1
1
1
1
1
1
1
1
1
1
1.00006
1.00045
1
1
1
1
1
1
1
1
1
1
1
1
1
1
1
1
1
1
1
1
1
1
1
0.999997
1.00008
1
1
1
1
1
1
1
1
1
1
1
1
1
1
1
1
1
1
1
1
1
1
1
1
1.00003
1
1
1
1
1
1
1
1
1
1
1
1
1
1
1
1
1
1
1
1
1
1
1
1
1
1
1
1
1
1
1
1
1
1
1
1
1
1
1
1
1
1
1
1
1
1
1
1
1
1
1
1
1
1
1
1
1
1
1
1
1
1
1
1
1
1
1
1
1
1
1
1
1
1
1
1
1
1
1
1
1
1
1
1
1
1
1
1
1
1
1
1
1
1
1
1
1
1
1
1
1
1
1
1
1
1
1
1
1
1
1
1
1
1
1
1
1
1
1
1
1
1
1
1
1
1
1
1
1
1
1
1
1
1
1
1
1
1
1
1
1
1
1
1
1
1
1
1
1
1
1
1
1
1
1
1
1
1
1
1
1
1
1
1
1
1
1
1
1
1
1
1
1
1
1
2.16739
2.43565
2.70597
2.65953
2.63264
2.68182
2.72325
2.73482
2.52862
2.45255
2.44172
2.44901
2.45394
2.45894
2.48393
2.41822
2.3475
2.31439
2.30848
2.30754
2.31704
2.32188
2.32242
2.32217
2.32396
2.31981
2.31179
2.30835
2.30497
2.30291
2.2997
2.29356
2.29716
2.29785
2.30929
2.35454
2.39215
2.42476
2.47808
2.51579
2.54584
2.57082
2.60764
2.63858
2.66797
2.68766
2.69451
2.69851
2.70922
2.71
2.73571
2.72033
2.70919
2.69552
2.68156
2.66883
2.65485
2.64071
2.62604
2.61302
2.60019
2.5869
2.57387
2.56154
2.54975
2.5381
2.52688
2.51553
2.50461
2.49403
2.48378
2.4735
2.46311
2.45262
2.44222
2.43264
2.42322
2.41414
2.40505
2.39608
2.38702
2.37828
2.36948
2.36126
2.35299
2.34541
2.3378
2.33099
2.32418
2.31809
2.31197
2.30641
2.30073
2.2954
2.2897
2.28365
2.27734
2.26721
2.26645
2.27182
2.15749
2.39448
2.4813
2.64165
2.723
2.73602
2.84632
3.01214
2.80623
2.72918
2.72103
2.77525
2.79153
2.81378
2.82615
2.74964
2.70347
2.67962
2.68027
2.68097
2.68839
2.69471
2.69504
2.69453
2.69631
2.69097
2.68552
2.68012
2.67481
2.67285
2.67166
2.66542
2.67194
2.67698
2.67628
2.71727
2.74925
2.77223
2.80989
2.83247
2.8469
2.85059
2.84584
2.8663
2.85767
2.8379
2.81989
2.80429
2.77182
2.74911
2.7214
2.68733
2.65404
2.61739
2.57997
2.55121
2.52187
2.4928
2.46092
2.43555
2.41746
2.40031
2.38241
2.36337
2.34592
2.33119
2.31759
2.30396
2.29094
2.27888
2.26844
2.25865
2.24896
2.23928
2.22952
2.22029
2.21127
2.20292
2.1947
2.18676
2.17881
2.17117
2.1635
2.15616
2.14884
2.14166
2.13443
2.12737
2.1202
2.11355
2.10692
2.10124
2.09594
2.09142
2.08688
2.08237
2.07766
2.0697
2.0702
2.07741
1.92369
2.10957
2.2626
2.48232
2.59992
2.63253
2.63919
2.75526
2.88872
2.90962
2.9376
2.90484
2.86473
2.90389
2.96055
3.02162
2.9202
2.86877
2.85943
2.85114
2.87312
2.88553
2.88711
2.88693
2.89055
2.88308
2.87429
2.8737
2.87384
2.87293
2.87583
2.86635
2.87393
2.87762
2.87796
2.90507
2.93793
2.94484
3.02819
3.02324
3.00398
2.99117
2.95327
2.89641
2.82507
2.7531
2.68047
2.62401
2.56883
2.51131
2.46786
2.42454
2.39085
2.35648
2.32414
2.30075
2.27711
2.25478
2.23
2.20512
2.18755
2.17383
2.16041
2.14684
2.13336
2.12024
2.10845
2.09789
2.08777
2.07756
2.06766
2.05892
2.05048
2.04226
2.03488
2.02811
2.02139
2.01491
2.00845
2.00209
1.99573
1.98954
1.98331
1.97729
1.97124
1.96541
1.95956
1.95398
1.94837
1.94305
1.93771
1.93267
1.92826
1.9239
1.91955
1.91518
1.91049
1.90283
1.90186
1.9082
1.78053
1.84297
1.95711
2.15424
2.3533
2.47562
2.45694
2.482
2.58719
2.71232
2.79338
2.84945
2.84569
2.82936
2.81296
2.88815
2.93157
2.94515
2.96592
2.95978
2.95056
2.93
2.86789
2.87571
2.88635
2.89003
2.89115
2.88765
2.87829
2.87366
2.87751
2.86913
2.89734
2.92588
2.99049
3.02896
3.02083
3.01029
2.97465
2.8852
2.77418
2.68751
2.61879
2.54158
2.48436
2.42426
2.35936
2.31907
2.29877
2.25761
2.22893
2.21058
2.18991
2.16846
2.1448
2.12825
2.11119
2.09584
2.07967
2.06278
2.04989
2.03991
2.02968
2.01869
2.00737
1.99767
1.98872
1.98007
1.97151
1.96293
1.95443
1.94683
1.93966
1.93244
1.9255
1.91915
1.91309
1.90727
1.90164
1.89618
1.89084
1.88569
1.88055
1.87538
1.87014
1.86484
1.85952
1.85445
1.84951
1.84457
1.83967
1.83488
1.83072
1.82654
1.82245
1.81838
1.814
1.80739
1.80501
1.81136
1.75111
1.76489
1.81021
1.91596
2.0527
2.22364
2.25417
2.20267
2.28555
2.41051
2.51298
2.61762
2.7066
2.70544
2.6922
2.69406
2.73224
2.78118
2.82831
2.87635
2.90128
2.89963
2.89501
2.88844
2.87765
2.87387
2.87868
2.87836
2.87679
2.87436
2.86747
2.88335
2.90424
2.93931
2.93735
2.90213
2.82654
2.72916
2.61207
2.53607
2.44712
2.38627
2.32508
2.26807
2.21982
2.18221
2.14416
2.12776
2.11294
2.08422
2.07417
2.06632
2.05247
2.03954
2.02492
2.01613
2.00668
1.99521
1.98211
1.97213
1.96501
1.95845
1.95084
1.9411
1.93047
1.92196
1.91477
1.90823
1.90173
1.89498
1.88786
1.88098
1.87413
1.86713
1.86071
1.85513
1.84977
1.84446
1.8392
1.83392
1.8286
1.82317
1.81762
1.81251
1.80772
1.80307
1.79855
1.79415
1.78979
1.78533
1.78083
1.77627
1.77198
1.76765
1.7633
1.75895
1.75431
1.74787
1.74424
1.75068
1.78505
1.73954
1.74843
1.78776
1.85867
1.94604
2.03429
2.00542
2.07388
2.18278
2.28166
2.35777
2.44934
2.487
2.4866
2.49784
2.53367
2.58419
2.63057
2.68614
2.73914
2.76448
2.79386
2.81137
2.82479
2.82916
2.83664
2.83825
2.84222
2.84872
2.85109
2.86435
2.85403
2.82262
2.75826
2.67227
2.54617
2.43063
2.29684
2.24585
2.18296
2.14087
2.09732
2.06129
2.02165
2.02098
2.01083
1.99956
1.97355
1.96396
1.97531
1.97124
1.96226
1.95288
1.94663
1.93937
1.93192
1.92401
1.91847
1.91522
1.91036
1.90336
1.89571
1.88835
1.88131
1.87546
1.86966
1.8639
1.85815
1.85191
1.84509
1.83847
1.83246
1.82714
1.82229
1.81731
1.81214
1.80674
1.80102
1.79497
1.78881
1.78331
1.77849
1.77396
1.7695
1.76503
1.76053
1.75596
1.7513
1.7465
1.74173
1.73699
1.73274
1.72851
1.7242
1.71982
1.7151
1.70896
1.70413
1.71035
1.84869
1.75997
1.72724
1.73061
1.76127
1.7942
1.83095
1.8222
1.83853
1.90488
2.00193
2.08089
2.16082
2.22307
2.26845
2.2765
2.31201
2.35893
2.41232
2.45859
2.51753
2.55481
2.59858
2.6352
2.67292
2.69642
2.7271
2.74248
2.76311
2.79371
2.79386
2.78418
2.75679
2.67793
2.53198
2.35665
2.19928
2.09257
2.0004
1.96589
1.92716
1.91629
1.90857
1.91473
1.92357
1.94627
1.93454
1.91777
1.88894
1.88607
1.8861
1.88936
1.90214
1.90215
1.89136
1.88722
1.88036
1.87993
1.88086
1.88002
1.87636
1.87073
1.8624
1.85864
1.85495
1.85072
1.84599
1.84058
1.83436
1.82735
1.82107
1.8165
1.81203
1.80725
1.80206
1.79645
1.79039
1.78399
1.77794
1.77239
1.7671
1.76197
1.7571
1.75236
1.7476
1.74274
1.73775
1.73269
1.72787
1.72311
1.71835
1.71363
1.70918
1.70473
1.70017
1.69553
1.69056
1.68451
1.67871
1.68483
1.90178
1.80858
1.73337
1.72654
1.72956
1.73362
1.74324
1.72277
1.70996
1.72893
1.78227
1.85617
1.91695
1.97253
2.03276
2.03625
2.0521
2.09244
2.15445
2.20704
2.27864
2.3216
2.3658
2.40694
2.45311
2.49221
2.53905
2.58225
2.64337
2.66775
2.70403
2.66083
2.57297
2.42315
2.19598
2.06155
1.9406
1.86216
1.80664
1.76658
1.74301
1.73732
1.73163
1.73883
1.75546
1.79129
1.82957
1.88568
1.88092
1.8598
1.83207
1.83238
1.8401
1.85892
1.86456
1.86329
1.86072
1.86036
1.85642
1.85639
1.85634
1.85519
1.85063
1.8453
1.84119
1.83656
1.8317
1.82619
1.81955
1.81415
1.81085
1.80696
1.80209
1.79623
1.78957
1.78231
1.77565
1.77067
1.76593
1.76113
1.75629
1.75139
1.74641
1.74125
1.73583
1.73027
1.7249
1.71988
1.71499
1.71007
1.70509
1.70007
1.69508
1.69009
1.68501
1.68002
1.67484
1.66876
1.66257
1.66854
1.92244
1.85906
1.7745
1.74942
1.71733
1.7177
1.70896
1.68316
1.65103
1.63236
1.64811
1.68577
1.72833
1.77038
1.79896
1.8289
1.83423
1.86157
1.90967
1.96578
2.01654
2.07481
2.11554
2.15901
2.20511
2.25181
2.30885
2.36596
2.47309
2.56062
2.55586
2.474
2.34026
2.13507
1.93721
1.85424
1.7748
1.73395
1.69447
1.65335
1.6329
1.61827
1.60848
1.60877
1.6232
1.65293
1.68478
1.73185
1.79453
1.87639
1.85841
1.8283
1.82674
1.82544
1.82662
1.83967
1.84786
1.84944
1.8469
1.84212
1.84339
1.84357
1.84244
1.83785
1.83307
1.82767
1.82014
1.81639
1.81327
1.80955
1.8045
1.79813
1.79135
1.78539
1.77976
1.77409
1.76798
1.76259
1.75757
1.75244
1.74718
1.74174
1.73605
1.73026
1.7251
1.72014
1.71524
1.71037
1.70549
1.70054
1.69547
1.69027
1.68492
1.67982
1.67485
1.66992
1.66475
1.65859
1.65202
1.65772
1.92225
1.87263
1.8162
1.78269
1.73399
1.72594
1.70939
1.68022
1.64635
1.60567
1.59355
1.60515
1.63073
1.64711
1.66368
1.68044
1.68968
1.70232
1.7188
1.74967
1.78896
1.83022
1.87593
1.92519
1.9636
2.00721
2.0692
2.14196
2.28825
2.47608
2.37505
2.25849
2.1029
1.90548
1.81121
1.74176
1.6885
1.65226
1.61925
1.58781
1.57126
1.55368
1.53958
1.53568
1.54329
1.55504
1.57337
1.6111
1.66048
1.72281
1.80416
1.89388
1.86754
1.83483
1.81169
1.81836
1.82097
1.8308
1.84141
1.8382
1.83686
1.83444
1.83306
1.82957
1.82539
1.82122
1.81617
1.81021
1.80515
1.79965
1.79397
1.78845
1.78337
1.77844
1.77314
1.76754
1.76173
1.75577
1.75022
1.74464
1.73892
1.73298
1.72685
1.72161
1.71703
1.71248
1.7079
1.70324
1.69849
1.69356
1.68843
1.68314
1.67767
1.67271
1.66786
1.66298
1.65781
1.65162
1.64491
1.65072
1.91696
1.87482
1.83521
1.80675
1.76469
1.74551
1.72086
1.68998
1.65416
1.61424
1.5793
1.5759
1.58395
1.59025
1.59636
1.60621
1.60605
1.60417
1.60609
1.6129
1.63301
1.66334
1.69251
1.72622
1.76471
1.80983
1.8744
1.98341
2.2332
2.29896
2.19597
2.08679
1.94163
1.81575
1.74036
1.68159
1.6394
1.60555
1.5747
1.54524
1.5305
1.51624
1.51017
1.50505
1.50012
1.50237
1.51302
1.53548
1.56117
1.60288
1.66559
1.74365
1.86523
1.88849
1.84937
1.83352
1.81139
1.81583
1.82223
1.83303
1.83054
1.83048
1.82895
1.8234
1.81613
1.8123
1.80901
1.80483
1.79874
1.79148
1.78656
1.78148
1.77632
1.77086
1.76506
1.75881
1.75327
1.74803
1.74282
1.73759
1.73222
1.72673
1.72125
1.71613
1.71119
1.70631
1.70149
1.69668
1.69184
1.68693
1.68194
1.67688
1.67167
1.66675
1.66191
1.65703
1.65186
1.64571
1.63898
1.64491
1.90441
1.86795
1.8337
1.80949
1.78278
1.7648
1.73845
1.70718
1.66995
1.63148
1.59193
1.56603
1.56488
1.56671
1.56913
1.56725
1.56455
1.56216
1.55668
1.54173
1.54765
1.56668
1.58704
1.60974
1.64024
1.6859
1.76591
1.92699
2.23646
2.11838
2.04419
1.95068
1.83888
1.78224
1.72579
1.67959
1.63476
1.59914
1.56542
1.53885
1.51737
1.49871
1.48384
1.48485
1.48779
1.48822
1.49434
1.49791
1.50653
1.52673
1.55825
1.6053
1.67684
1.76068
1.8873
1.86692
1.81388
1.80375
1.79183
1.79464
1.80032
1.80627
1.80482
1.80238
1.79725
1.79027
1.78481
1.78152
1.77791
1.77332
1.76602
1.76058
1.75574
1.751
1.74602
1.74047
1.73424
1.72942
1.72474
1.71999
1.71518
1.71063
1.70618
1.7017
1.69717
1.69259
1.68806
1.68354
1.67896
1.6743
1.66951
1.66461
1.65956
1.65473
1.65019
1.64562
1.64076
1.63489
1.62853
1.6349
1.88891
1.85754
1.83
1.80567
1.7863
1.77127
1.75259
1.72663
1.69178
1.65322
1.61442
1.57486
1.56495
1.5613
1.55232
1.55052
1.54989
1.54445
1.53084
1.51135
1.50742
1.51802
1.53422
1.55027
1.57991
1.64111
1.7681
2.01071
2.11474
2.01548
1.94778
1.87528
1.81672
1.76832
1.72317
1.67865
1.64223
1.61196
1.58145
1.55918
1.53972
1.52036
1.50957
1.49751
1.48274
1.48414
1.48852
1.48454
1.48708
1.49034
1.49923
1.51736
1.55012
1.59927
1.67484
1.76975
1.87535
1.84165
1.81044
1.76329
1.7757
1.7753
1.78315
1.77888
1.77393
1.76771
1.76567
1.76278
1.7587
1.75341
1.74663
1.738
1.73385
1.73011
1.7262
1.72163
1.71641
1.71086
1.70517
1.70065
1.69633
1.69201
1.68765
1.6832
1.67864
1.674
1.66938
1.66478
1.66017
1.65554
1.65088
1.64644
1.64212
1.63774
1.63354
1.62933
1.62484
1.61934
1.61345
1.62029
1.87497
1.84493
1.82157
1.79714
1.78029
1.7679
1.75444
1.73568
1.71106
1.67931
1.64263
1.60234
1.57473
1.56749
1.55628
1.54967
1.54299
1.5363
1.52789
1.51505
1.49196
1.49558
1.50954
1.52769
1.57086
1.67144
1.85621
2.09593
1.99415
1.9547
1.90985
1.86015
1.81855
1.77755
1.73966
1.70295
1.6717
1.64112
1.61505
1.59341
1.57099
1.55458
1.54063
1.52249
1.51112
1.49861
1.48313
1.47336
1.47436
1.47639
1.47511
1.4727
1.47736
1.49522
1.53816
1.6056
1.68783
1.83021
1.83692
1.78994
1.78023
1.75228
1.75664
1.75879
1.76271
1.76313
1.7605
1.75611
1.75041
1.74287
1.73903
1.73573
1.73158
1.72677
1.72063
1.71483
1.7091
1.70374
1.69817
1.69261
1.68744
1.68313
1.67923
1.67533
1.6714
1.66741
1.66334
1.65914
1.65479
1.65028
1.64562
1.64087
1.63601
1.63098
1.62578
1.62047
1.61495
1.60861
1.60176
1.60864
1.87076
1.83208
1.80811
1.78914
1.77063
1.76029
1.75065
1.73659
1.71755
1.69218
1.6601
1.62995
1.59489
1.57899
1.57024
1.55458
1.54492
1.53905
1.53072
1.5182
1.49665
1.49817
1.51153
1.54138
1.61886
1.77476
2.08069
2.00952
1.92702
1.90522
1.87991
1.85239
1.82265
1.79069
1.75636
1.72342
1.69318
1.66376
1.64314
1.62101
1.59945
1.5866
1.56932
1.55034
1.53516
1.51671
1.50492
1.49272
1.47714
1.46267
1.455
1.45503
1.45002
1.45308
1.46582
1.48885
1.53733
1.61155
1.7047
1.85295
1.82492
1.78916
1.74904
1.74347
1.74706
1.75149
1.74977
1.74731
1.74071
1.73308
1.72464
1.72269
1.72063
1.71807
1.71409
1.70809
1.70119
1.69631
1.69117
1.68566
1.68051
1.67636
1.67244
1.66847
1.66469
1.66098
1.65725
1.65342
1.64939
1.64519
1.64089
1.63641
1.6316
1.6263
1.62057
1.61459
1.60832
1.60124
1.59328
1.59989
1.87418
1.83282
1.80174
1.78179
1.75973
1.74998
1.74164
1.73147
1.71598
1.69502
1.66872
1.63996
1.61617
1.58913
1.57819
1.56454
1.55473
1.5438
1.53531
1.52465
1.51201
1.51795
1.53227
1.58901
1.72523
2.01789
1.98882
1.90363
1.89635
1.88387
1.86882
1.85061
1.82872
1.80433
1.77786
1.75033
1.72106
1.69792
1.6756
1.65089
1.63274
1.61351
1.59246
1.57474
1.55692
1.53891
1.5226
1.50165
1.48491
1.46755
1.45318
1.44771
1.44207
1.43504
1.43467
1.43644
1.45442
1.49185
1.54992
1.63767
1.74537
1.83122
1.79415
1.77109
1.71898
1.72583
1.73128
1.7336
1.73311
1.7302
1.72345
1.71473
1.71054
1.7085
1.70531
1.70083
1.69453
1.68639
1.68226
1.67887
1.6754
1.67189
1.66835
1.66473
1.66092
1.657
1.65301
1.64899
1.64488
1.64059
1.6361
1.63148
1.62656
1.62112
1.61519
1.60901
1.60258
1.59539
1.58701
1.59374
1.88196
1.83651
1.7981
1.7787
1.75634
1.74053
1.7319
1.72222
1.70956
1.69306
1.67326
1.65075
1.63037
1.6049
1.58344
1.56939
1.56483
1.55428
1.54266
1.53448
1.53911
1.5474
1.59077
1.70037
1.9585
1.97026
1.90276
1.88918
1.88139
1.874
1.8653
1.85378
1.8384
1.81961
1.79742
1.77326
1.74716
1.72421
1.69942
1.6761
1.65515
1.63266
1.6133
1.5956
1.57534
1.55516
1.53488
1.51718
1.50262
1.4868
1.47609
1.46213
1.44681
1.42911
1.42831
1.42094
1.42556
1.43375
1.45421
1.50024
1.56532
1.65762
1.81188
1.80538
1.75982
1.74303
1.70421
1.70743
1.71229
1.71365
1.71278
1.7086
1.70472
1.70008
1.69549
1.69036
1.68521
1.67982
1.6736
1.6708
1.66843
1.66574
1.66281
1.65958
1.65598
1.65216
1.64824
1.64411
1.63967
1.63502
1.63023
1.62542
1.62032
1.6147
1.60872
1.60255
1.59615
1.58894
1.58031
1.58728
1.88992
1.84462
1.80025
1.77832
1.75974
1.7346
1.7258
1.71804
1.70602
1.69092
1.67218
1.65561
1.6374
1.61972
1.59559
1.574
1.56919
1.55279
1.55525
1.55956
1.56691
1.60472
1.70079
1.89872
1.98405
1.91057
1.8983
1.88075
1.87807
1.87475
1.87013
1.86195
1.8498
1.83316
1.81334
1.79075
1.76728
1.74278
1.71715
1.69465
1.66946
1.64954
1.63069
1.61002
1.58722
1.56757
1.54631
1.53417
1.518
1.50018
1.48796
1.47324
1.45845
1.44445
1.43055
1.41919
1.40996
1.41271
1.41276
1.42516
1.45148
1.5087
1.58979
1.69316
1.82525
1.78679
1.75105
1.69672
1.68587
1.69602
1.69677
1.69819
1.69902
1.69769
1.69171
1.68271
1.67563
1.67207
1.66866
1.66547
1.662
1.65832
1.65473
1.65108
1.64738
1.64357
1.6397
1.63563
1.63117
1.62631
1.62133
1.61655
1.61157
1.606
1.59993
1.5936
1.58723
1.5802
1.57188
1.57934
1.89993
1.85392
1.80863
1.77753
1.7641
1.73908
1.7227
1.71897
1.70817
1.6927
1.67223
1.65693
1.64136
1.62615
1.60448
1.5833
1.56062
1.56294
1.57022
1.58187
1.61688
1.70543
1.86702
2.0105
1.93213
1.91532
1.88173
1.88117
1.87996
1.87614
1.87026
1.86185
1.85095
1.837
1.81999
1.79954
1.77681
1.75239
1.72697
1.70445
1.6808
1.66302
1.64211
1.61991
1.59902
1.58233
1.56542
1.54682
1.52768
1.51243
1.49781
1.48561
1.47201
1.45817
1.44397
1.42962
1.41111
1.398
1.39436
1.40126
1.40591
1.42663
1.46777
1.53489
1.62486
1.75991
1.78217
1.72763
1.7172
1.67197
1.67434
1.68253
1.68589
1.68682
1.6858
1.68145
1.67181
1.66125
1.65941
1.65759
1.65535
1.65273
1.64951
1.6457
1.64213
1.63835
1.63435
1.62994
1.62502
1.61956
1.61347
1.60783
1.6025
1.59705
1.59142
1.58545
1.57911
1.57187
1.56302
1.57053
1.90955
1.86965
1.82598
1.78538
1.76864
1.74815
1.71948
1.71592
1.71035
1.69643
1.67533
1.65612
1.64331
1.62698
1.60723
1.58196
1.55963
1.57385
1.58953
1.61791
1.70224
1.8597
2.04447
1.96259
1.9355
1.88978
1.88152
1.87908
1.87422
1.8669
1.85849
1.84948
1.83962
1.82829
1.81436
1.79796
1.7781
1.75648
1.73322
1.70962
1.68938
1.66838
1.6451
1.62805
1.61158
1.59241
1.57396
1.55496
1.53579
1.52172
1.50738
1.49321
1.48098
1.46768
1.45318
1.43675
1.42173
1.40871
1.39267
1.39573
1.39165
1.39794
1.40997
1.43481
1.4805
1.54938
1.64137
1.773
1.75022
1.71349
1.68851
1.65857
1.66226
1.66815
1.67617
1.67439
1.6699
1.66179
1.65232
1.65117
1.65025
1.64834
1.64572
1.64224
1.6381
1.63381
1.62937
1.62454
1.61893
1.61271
1.60663
1.60115
1.59615
1.59081
1.58509
1.57906
1.57263
1.56506
1.55551
1.56295
1.9625
1.89347
1.84692
1.79808
1.77215
1.75784
1.72646
1.71518
1.71166
1.69993
1.68156
1.65889
1.64545
1.63035
1.61057
1.57677
1.57545
1.59031
1.61365
1.68729
1.83779
2.07169
1.9935
1.95322
1.89765
1.88249
1.87809
1.87084
1.86279
1.85408
1.84531
1.83663
1.82775
1.8182
1.80698
1.79383
1.77787
1.76
1.74013
1.71868
1.69636
1.67306
1.65662
1.6376
1.61861
1.59954
1.57957
1.564
1.54661
1.53052
1.51486
1.50124
1.48833
1.47447
1.46085
1.44689
1.43249
1.41701
1.40448
1.39518
1.38461
1.38615
1.38946
1.39124
1.40575
1.437
1.49013
1.56667
1.65479
1.74166
1.70957
1.6881
1.65144
1.65149
1.65583
1.66218
1.66328
1.66111
1.65494
1.64737
1.64576
1.64393
1.64128
1.63797
1.63419
1.62994
1.62508
1.61994
1.6146
1.60842
1.60144
1.59572
1.59017
1.58433
1.57785
1.57154
1.56513
1.55766
1.5478
1.55525
1.97653
1.90455
1.86509
1.82112
1.78233
1.76338
1.73328
1.71477
1.70937
1.7006
1.68458
1.66238
1.64406
1.63209
1.61302
1.59057
1.59881
1.61381
1.67511
1.8114
2.07129
2.02234
1.9711
1.90703
1.88844
1.88127
1.87194
1.86145
1.85189
1.84251
1.83441
1.82595
1.81807
1.81003
1.80102
1.79048
1.77768
1.76245
1.7451
1.72622
1.70658
1.68612
1.66682
1.64689
1.62918
1.61075
1.59349
1.57474
1.5603
1.54435
1.52978
1.5164
1.50182
1.48828
1.47384
1.45868
1.44281
1.42726
1.4171
1.40702
1.39428
1.38619
1.38076
1.37816
1.38234
1.38813
1.40078
1.43651
1.49653
1.57982
1.71792
1.72327
1.68058
1.67363
1.6438
1.64866
1.65649
1.65552
1.65251
1.64505
1.63995
1.63617
1.63197
1.62888
1.62573
1.62236
1.61836
1.61325
1.60754
1.6016
1.59387
1.58728
1.58169
1.57575
1.56943
1.56275
1.55634
1.54918
1.5398
1.54766
2.03354
1.95407
1.86874
1.83362
1.79475
1.7708
1.74649
1.71552
1.71165
1.70303
1.68877
1.66811
1.64528
1.63279
1.61705
1.61924
1.6313
1.68054
1.8012
2.05578
2.03049
1.98085
1.91445
1.89942
1.89227
1.88212
1.87058
1.8575
1.84737
1.83734
1.82822
1.82002
1.81195
1.8039
1.79545
1.78612
1.77525
1.76256
1.74781
1.73133
1.71375
1.69519
1.67637
1.65746
1.63859
1.62002
1.60143
1.5841
1.56939
1.55484
1.54016
1.5256
1.51164
1.49738
1.48268
1.4672
1.45068
1.43535
1.42491
1.41386
1.40166
1.3939
1.38497
1.3753
1.37047
1.36896
1.36916
1.3735
1.39297
1.4407
1.51976
1.60774
1.74031
1.71083
1.67639
1.65223
1.6266
1.62808
1.63521
1.63458
1.63146
1.62777
1.62315
1.61677
1.61337
1.60993
1.60629
1.60204
1.59697
1.59127
1.58426
1.57566
1.57015
1.56435
1.55825
1.55203
1.54587
1.53909
1.53079
1.53931
2.21841
1.94686
1.89675
1.84231
1.81051
1.77599
1.75478
1.72122
1.71255
1.7095
1.69722
1.67525
1.64806
1.63893
1.64372
1.65459
1.69577
1.8055
2.05222
2.05051
1.99987
1.92522
1.91264
1.90725
1.89711
1.88494
1.87189
1.85838
1.84662
1.83505
1.82334
1.81357
1.80544
1.7973
1.78898
1.78021
1.77059
1.75973
1.74746
1.73359
1.71837
1.70217
1.68503
1.6674
1.64907
1.63109
1.61285
1.59613
1.57916
1.56404
1.54946
1.53583
1.52184
1.50761
1.49247
1.47715
1.46027
1.44668
1.43223
1.42009
1.41165
1.4021
1.39068
1.37778
1.3691
1.36109
1.35886
1.35101
1.35113
1.36088
1.39681
1.46118
1.55619
1.70126
1.70757
1.66214
1.65108
1.61719
1.61353
1.61597
1.62075
1.61965
1.6165
1.60922
1.60074
1.59912
1.59712
1.59363
1.58795
1.58048
1.57303
1.56453
1.55861
1.55345
1.54784
1.54197
1.53593
1.52927
1.52167
1.53055
2.4314
2.06449
1.92906
1.85027
1.80975
1.77671
1.75545
1.73086
1.70827
1.71057
1.70355
1.68371
1.66043
1.66408
1.6793
1.72096
1.82161
2.02907
2.07702
2.02226
1.94119
1.92702
1.92311
1.91275
1.89996
1.88626
1.87209
1.8592
1.84655
1.83407
1.8216
1.81016
1.801
1.79262
1.78411
1.77522
1.76589
1.75595
1.74522
1.73347
1.72053
1.70639
1.69111
1.67489
1.65772
1.63983
1.62187
1.6045
1.58737
1.57148
1.55684
1.54345
1.52895
1.51376
1.49788
1.48195
1.46566
1.45106
1.43524
1.42606
1.41694
1.40617
1.39452
1.38425
1.37464
1.36422
1.3532
1.34092
1.33014
1.33259
1.34337
1.37501
1.42313
1.49312
1.58819
1.71841
1.68642
1.64751
1.62254
1.59371
1.59521
1.60124
1.60028
1.59752
1.59331
1.5891
1.58613
1.58213
1.57408
1.56541
1.56005
1.55443
1.54854
1.54213
1.53674
1.53116
1.52548
1.51914
1.51186
1.52054
2.25591
2.2116
1.93345
1.87568
1.80986
1.78237
1.75911
1.73826
1.71043
1.70434
1.70287
1.68975
1.68942
1.70006
1.74332
1.84783
2.05236
2.10677
2.04713
1.96437
1.94207
1.93833
1.92801
1.91525
1.90167
1.88841
1.87537
1.8622
1.84889
1.83547
1.82226
1.80915
1.79794
1.7884
1.77956
1.77061
1.76127
1.75163
1.74163
1.73117
1.71985
1.70747
1.69383
1.67888
1.66289
1.646
1.6284
1.61133
1.59492
1.57907
1.56365
1.54855
1.53369
1.51801
1.50187
1.4844
1.47006
1.45559
1.44116
1.43172
1.42159
1.41063
1.39991
1.38993
1.37928
1.36883
1.3579
1.34643
1.32957
1.32718
1.3325
1.33475
1.3497
1.38403
1.44321
1.53383
1.64667
1.67322
1.63469
1.62171
1.60264
1.58093
1.58314
1.59007
1.58874
1.58436
1.57988
1.57474
1.566
1.55536
1.55011
1.54447
1.53855
1.53242
1.52626
1.52084
1.5152
1.50881
1.50169
1.51001
1.58736
2.38749
2.14799
1.87812
1.84004
1.79199
1.76879
1.74396
1.72184
1.69302
1.70025
1.71055
1.72178
1.76138
1.86929
2.08565
2.14944
2.08308
1.99434
1.96514
1.96191
1.95193
1.9388
1.92411
1.90904
1.8959
1.88255
1.8688
1.85463
1.84019
1.82554
1.8115
1.79811
1.78661
1.77632
1.76661
1.75698
1.74714
1.73699
1.7265
1.7156
1.70409
1.69167
1.67818
1.66356
1.64788
1.63142
1.61456
1.59815
1.5819
1.56596
1.54998
1.53433
1.51886
1.50297
1.48641
1.47036
1.45809
1.44692
1.43581
1.42389
1.41429
1.40443
1.394
1.38388
1.37308
1.36172
1.34998
1.33878
1.32296
1.31728
1.32186
1.32778
1.33803
1.36272
1.40195
1.46937
1.55581
1.7056
1.67647
1.63265
1.6103
1.57253
1.5739
1.57641
1.57569
1.57272
1.56774
1.56146
1.55055
1.54087
1.53661
1.53168
1.5255
1.51839
1.51197
1.50565
1.4985
1.49098
1.49883
1.22469
1.88295
2.36277
2.02976
1.86908
1.80807
1.7615
1.73907
1.70904
1.6977
1.70964
1.7331
1.78265
1.88957
2.10906
2.18919
2.1171
2.02302
1.98426
1.98367
1.97538
1.9626
1.94749
1.92919
1.91473
1.90083
1.88669
1.87219
1.85735
1.84214
1.82686
1.81163
1.79706
1.78338
1.77052
1.75905
1.74758
1.73721
1.72669
1.71591
1.70482
1.69338
1.68142
1.66879
1.65533
1.64112
1.62638
1.61129
1.59648
1.58185
1.56703
1.55236
1.53734
1.52224
1.50669
1.49047
1.47381
1.45925
1.45056
1.43966
1.42888
1.41925
1.40947
1.39938
1.38929
1.37865
1.36892
1.35963
1.35013
1.34036
1.32914
1.3241
1.32814
1.33342
1.3339
1.34098
1.37788
1.43879
1.52514
1.64524
1.66903
1.63003
1.6152
1.59321
1.56666
1.56361
1.56552
1.56279
1.55798
1.55098
1.54248
1.53386
1.52579
1.5181
1.51074
1.50516
1.49917
1.49216
1.48305
1.49058
1.05388
1.3362
2.23912
2.1922
1.92189
1.84838
1.76932
1.74407
1.71072
1.71496
1.7321
1.78256
1.90442
2.13048
2.21688
2.14433
2.05287
2.00153
2.00195
1.99575
1.98407
1.96871
1.95086
1.93237
1.9172
1.90208
1.8869
1.87154
1.85592
1.84007
1.82409
1.80809
1.79249
1.77739
1.76242
1.74833
1.73481
1.72326
1.71309
1.70271
1.69203
1.68108
1.66988
1.65823
1.64607
1.63353
1.62084
1.60815
1.5954
1.58234
1.56882
1.55492
1.54037
1.52552
1.50986
1.49327
1.47642
1.46496
1.45562
1.44705
1.43749
1.42758
1.41728
1.408
1.39785
1.38915
1.38009
1.373
1.36684
1.35953
1.35252
1.34553
1.33864
1.32834
1.33308
1.33635
1.34601
1.37528
1.41375
1.47727
1.56927
1.69684
1.67476
1.63094
1.61489
1.58673
1.56329
1.56335
1.56298
1.55794
1.55017
1.54056
1.53038
1.51876
1.51028
1.50443
1.49794
1.4908
1.48111
1.48817
1.01122
1.08044
1.52271
2.258
2.09184
1.84774
1.80142
1.74451
1.72926
1.74285
1.78993
1.91231
2.1525
2.22907
2.15742
2.06455
2.01156
2.0108
2.00559
1.99456
1.97853
1.9611
1.94298
1.92596
1.90911
1.8928
1.87698
1.86122
1.84552
1.82994
1.81435
1.79882
1.78338
1.76815
1.75315
1.73854
1.72509
1.71175
1.70169
1.69193
1.68182
1.67148
1.66096
1.65016
1.63906
1.62795
1.61754
1.60714
1.59631
1.58498
1.57321
1.56069
1.54761
1.53378
1.51919
1.50298
1.48945
1.47867
1.46976
1.46061
1.45146
1.44209
1.43379
1.42461
1.41628
1.4079
1.40007
1.39259
1.38732
1.38178
1.37639
1.37081
1.36392
1.3609
1.35337
1.35206
1.35896
1.36331
1.3759
1.41415
1.4719
1.54506
1.68217
1.73103
1.69301
1.65818
1.62239
1.57797
1.57093
1.56846
1.56249
1.55413