/*--------------------------------*- C++ -*----------------------------------*\
| =========                 |                                                 |
| \\      /  F ield         | OpenFOAM: The Open Source CFD Toolbox           |
|  \\    /   O peration     | Version:  v2106                                 |
|   \\  /    A nd           | Website:  www.openfoam.com                      |
|    \\/     M anipulation  |                                                 |
\*---------------------------------------------------------------------------*/
FoamFile
{
    version     2.0;
    format      ascii;
    arch        "LSB;label=32;scalar=64";
    class       volVectorField;
    location    "13";
    object      U;
}
// * * * * * * * * * * * * * * * * * * * * * * * * * * * * * * * * * * * * * //

dimensions      [0 1 -1 0 0 0 0];

internalField   nonuniform List<vector> 
5250
(
(3 1.48017e-14 0)
(3 -8.547e-14 0)
(3 -4.42095e-13 0)
(3 -6.99545e-12 0)
(3 -3.07848e-11 0)
(3 -3.35825e-10 0)
(3 1.45153e-09 0)
(3 -1.81229e-09 0)
(3.00001 8.09912e-08 0)
(2.99995 2.92022e-07 0)
(3.00055 5.61571e-06 0)
(2.99889 4.05426e-05 0)
(3.02963 0.000466894 0)
(3.01779 0.00311121 0)
(2.45681 0.00733164 0)
(0.694931 0.0334035 0)
(0.525539 0.0174379 0)
(0.545116 0.0208803 0)
(0.489639 0.0229881 0)
(0.417166 0.0239123 0)
(0.362731 0.0262519 0)
(0.288171 0.0303648 0)
(0.212683 0.0328838 0)
(0.132562 0.0330767 0)
(0.048945 0.0405267 0)
(3 -3.12393e-15 0)
(3 -1.1171e-13 0)
(3 -7.8146e-13 0)
(3 -1.18512e-11 0)
(3 -9.01428e-11 0)
(3 -9.52637e-10 0)
(3 2.12798e-09 0)
(3 1.53058e-08 0)
(3.00001 1.38235e-07 0)
(2.99995 1.55659e-06 0)
(3.00053 1.11051e-05 0)
(2.99896 0.000135419 0)
(3.02872 0.00111825 0)
(3.01993 0.00928505 0)
(2.46717 0.0249701 0)
(0.708257 0.101411 0)
(0.51447 0.048583 0)
(0.5441 0.0597925 0)
(0.488481 0.0633196 0)
(0.41411 0.066814 0)
(0.358233 0.0800571 0)
(0.283493 0.0879385 0)
(0.2104 0.0938359 0)
(0.126726 0.101502 0)
(0.0433078 0.110191 0)
(3 -5.61487e-14 0)
(3 5.06157e-13 0)
(3 2.30607e-12 0)
(3 5.05685e-13 0)
(3 1.7713e-10 0)
(3 -3.46916e-09 0)
(3 1.20869e-08 0)
(3 -9.90552e-08 0)
(3.00001 4.9327e-07 0)
(2.99994 -2.68192e-06 0)
(3.00058 2.58756e-05 0)
(2.9986 4.21609e-05 0)
(3.0297 0.00218986 0)
(3.02517 0.0165569 0)
(2.49567 0.0445166 0)
(0.755288 0.175185 0)
(0.496068 0.0796748 0)
(0.542865 0.0987216 0)
(0.482419 0.109167 0)
(0.404125 0.119026 0)
(0.351823 0.133942 0)
(0.280774 0.146432 0)
(0.206949 0.159222 0)
(0.12398 0.169711 0)
(0.0424999 0.180459 0)
(3 2.03848e-14 0)
(3 3.88612e-13 0)
(3 3.17486e-12 0)
(3 4.17421e-11 0)
(3 2.66793e-10 0)
(3 -2.64748e-09 0)
(3 5.29685e-08 0)
(3 -1.07179e-07 0)
(3 1.16687e-06 0)
(3.00001 -1.1753e-06 0)
(3.00016 -2.12189e-06 0)
(3.00061 0.000335098 0)
(3.01552 -0.0100432 0)
(3.03353 0.0251302 0)
(2.53576 0.0662207 0)
(0.822807 0.257861 0)
(0.461265 0.115812 0)
(0.536141 0.142129 0)
(0.470928 0.157257 0)
(0.397942 0.161847 0)
(0.349296 0.183366 0)
(0.279954 0.202596 0)
(0.205737 0.22318 0)
(0.126799 0.237753 0)
(0.0435355 0.250225 0)
(3 9.53223e-14 0)
(3 -4.6846e-13 0)
(3 1.79598e-12 0)
(3 2.188e-12 0)
(3 4.47539e-11 0)
(3 5.83787e-10 0)
(3 6.00918e-09 0)
(3 4.06579e-08 0)
(3 5.69697e-07 0)
(3.00001 3.3375e-06 0)
(3.00009 4.02984e-05 0)
(3.00085 0.000386526 0)
(3.0095 0.00173319 0)
(3.04908 0.0307553 0)
(2.59585 0.0885756 0)
(0.924119 0.3571 0)
(0.414766 0.147969 0)
(0.523979 0.183728 0)
(0.455403 0.197431 0)
(0.389917 0.206154 0)
(0.343352 0.234102 0)
(0.276272 0.261393 0)
(0.209052 0.28311 0)
(0.130037 0.305516 0)
(0.0437116 0.323824 0)
(3 4.9982e-13 0)
(3 -5.80841e-13 0)
(3 2.69951e-12 0)
(3 -3.72351e-11 0)
(3 1.83451e-10 0)
(3 -7.46387e-10 0)
(3 1.36527e-08 0)
(3 -1.18474e-09 0)
(3 8.26647e-07 0)
(3.00001 1.00636e-06 0)
(3.00006 4.97782e-05 0)
(3.00088 0.000229 0)
(3.00682 0.00289466 0)
(3.06252 0.0329909 0)
(2.67891 0.0987837 0)
(1.09494 0.464582 0)
(0.365049 0.202458 0)
(0.521355 0.2241 0)
(0.444661 0.237587 0)
(0.381677 0.246254 0)
(0.34011 0.282596 0)
(0.283131 0.312814 0)
(0.214888 0.347799 0)
(0.132811 0.378448 0)
(0.0518152 0.39984 0)
(3 6.51205e-15 0)
(3 5.15331e-14 0)
(3 2.344e-12 0)
(3 6.31775e-12 0)
(3 9.0139e-11 0)
(3 8.13504e-10 0)
(3 7.74517e-09 0)
(3 6.99716e-08 0)
(3 6.31536e-07 0)
(3.00002 5.81206e-06 0)
(3 5.16754e-05 0)
(3.00106 -0.000566274 0)
(3.00332 0.00376433 0)
(3.06907 0.0305033 0)
(2.77804 0.0824392 0)
(1.39498 0.569484 0)
(0.357509 0.252986 0)
(0.536242 0.262988 0)
(0.454961 0.280507 0)
(0.386907 0.282369 0)
(0.352086 0.322103 0)
(0.292909 0.364741 0)
(0.240772 0.404632 0)
(0.14809 0.448824 0)
(0.0691524 0.486158 0)
(3 -4.63187e-14 0)
(3 6.12277e-14 0)
(3 1.42095e-13 0)
(3 -3.20965e-13 0)
(3 6.99063e-11 0)
(3 1.91793e-10 0)
(3 2.12131e-09 0)
(3 2.08775e-08 0)
(3 5.88226e-07 0)
(3.00001 -4.49849e-06 0)
(3.00004 0.000116553 0)
(3.00048 -0.00184074 0)
(3.00099 0.0030264 0)
(3.06715 0.0240634 0)
(2.85317 0.0426699 0)
(1.82844 0.637732 0)
(0.408097 0.355406 0)
(0.579562 0.316266 0)
(0.497497 0.326327 0)
(0.41191 0.323112 0)
(0.366537 0.370811 0)
(0.315676 0.41602 0)
(0.252907 0.475261 0)
(0.174959 0.53324 0)
(0.0667177 0.593231 0)
(3 -2.28345e-14 0)
(3 1.74136e-13 0)
(3 -2.73365e-12 0)
(3 8.94846e-12 0)
(3 -2.00324e-11 0)
(3 -2.72021e-09 0)
(3 9.72288e-09 0)
(3 1.98206e-08 0)
(3 1.79297e-07 0)
(3 2.31831e-06 0)
(3.00004 1.9707e-05 0)
(3.0003 0.000213831 0)
(2.99938 0.00210397 0)
(3.06031 0.0187269 0)
(2.9052 0.0336024 0)
(2.16621 0.576873 0)
(0.559272 0.452996 0)
(0.644629 0.395256 0)
(0.572066 0.391007 0)
(0.474672 0.378091 0)
(0.409904 0.413911 0)
(0.363615 0.464978 0)
(0.307147 0.53447 0)
(0.233287 0.607914 0)
(0.140615 0.719828 0)
(3 2.66078e-14 0)
(3 -5.62693e-14 0)
(3 -4.5199e-14 0)
(3 -2.25369e-12 0)
(3 -3.2379e-11 0)
(3 2.77568e-11 0)
(3 6.24352e-09 0)
(3 4.43112e-09 0)
(3 3.7103e-07 0)
(3.00002 1.1443e-06 0)
(2.99993 2.3322e-05 0)
(3.00084 0.000117417 0)
(2.99854 0.00153892 0)
(3.04951 0.0151381 0)
(2.95403 0.0559208 0)
(2.3497 0.448072 0)
(0.67099 0.554341 0)
(0.725225 0.463483 0)
(0.666168 0.452466 0)
(0.569566 0.452536 0)
(0.471564 0.47824 0)
(0.432013 0.519357 0)
(0.354567 0.612245 0)
(0.305584 0.716253 0)
(0.0941209 0.954534 0)
(3 3.98317e-14 0)
(3 -3.45851e-14 0)
(3 1.45095e-12 0)
(3 5.05638e-12 0)
(3 1.19053e-10 0)
(3 6.49407e-10 0)
(3 -2.45714e-09 0)
(3 2.7984e-08 0)
(3 -2.02959e-08 0)
(3.00002 2.09316e-06 0)
(2.99993 6.13783e-06 0)
(3.0008 0.000150414 0)
(2.99774 0.000862156 0)
(3.04162 0.0126641 0)
(3.00279 0.0687157 0)
(2.50037 0.353489 0)
(0.816937 0.601394 0)
(0.72727 0.506755 0)
(0.718511 0.519727 0)
(0.664348 0.532553 0)
(0.571333 0.541761 0)
(0.511091 0.591281 0)
(0.445677 0.683653 0)
(0.482174 0.808817 0)
(0.418723 1.13618 0)
(3 1.34374e-14 0)
(3 1.25111e-13 0)
(3 1.40482e-12 0)
(3 1.4655e-11 0)
(3 6.1933e-11 0)
(3 6.07717e-10 0)
(3 -7.09295e-10 0)
(3 9.29946e-08 0)
(3 -1.41615e-07 0)
(3 2.7523e-06 0)
(3.00002 -2.87795e-05 0)
(3.00006 0.000142656 0)
(3.00185 0.00167311 0)
(3.01495 -0.0107591 0)
(3.03786 0.073996 0)
(2.64461 0.291571 0)
(1.01879 0.675017 0)
(0.687721 0.516984 0)
(0.741094 0.534932 0)
(0.731993 0.613468 0)
(0.679575 0.616719 0)
(0.614255 0.658282 0)
(0.570034 0.735323 0)
(0.688816 0.842394 0)
(0.676012 1.03102 0)
(3 -7.55047e-15 0)
(3 7.06423e-14 0)
(3 1.62873e-14 0)
(3 4.11527e-12 0)
(3 1.40302e-11 0)
(3 2.37909e-10 0)
(3 2.57814e-09 0)
(3 -1.64554e-07 0)
(3 2.42646e-07 0)
(3 2.09637e-06 0)
(3.00001 -3.70279e-06 0)
(3.00003 0.000196834 0)
(3.00117 -0.00657086 0)
(3.00209 0.00939981 0)
(3.07196 0.0616482 0)
(2.79798 0.244835 0)
(1.3629 0.763814 0)
(0.619157 0.523159 0)
(0.723591 0.543723 0)
(0.741546 0.627704 0)
(0.757672 0.677894 0)
(0.717957 0.724819 0)
(0.702807 0.758594 0)
(0.780537 0.850896 0)
(0.876456 0.895664 0)
(3 -4.60132e-16 0)
(3 2.55502e-14 0)
(3 -2.14875e-14 0)
(3 1.18551e-12 0)
(3 3.50355e-12 0)
(3 1.61174e-11 0)
(3 3.20501e-10 0)
(3 1.59459e-08 0)
(3 6.82164e-08 0)
(3.00001 9.32166e-07 0)
(2.99997 5.83054e-06 0)
(3.00024 6.31502e-05 0)
(2.99915 0.00053892 0)
(3.0007 0.00407115 0)
(3.06934 0.0393172 0)
(2.92896 0.146319 0)
(1.98706 0.868655 0)
(0.641348 0.578336 0)
(0.734593 0.564418 0)
(0.757459 0.622162 0)
(0.775636 0.684083 0)
(0.797746 0.750677 0)
(0.813668 0.783598 0)
(0.875892 0.834364 0)
(0.961378 0.857093 0)
(3 4.83246e-15 0)
(3 -1.72703e-14 0)
(3 2.91452e-13 0)
(3 1.99794e-13 0)
(3 1.35161e-11 0)
(3 8.80742e-11 0)
(3 -2.11269e-10 0)
(3 7.76241e-09 0)
(3 -2.42469e-08 0)
(3 6.46175e-07 0)
(3.00002 3.34937e-07 0)
(2.99994 3.7503e-05 0)
(3.00086 0.000117296 0)
(2.99879 0.002345 0)
(3.05194 0.0244035 0)
(2.976 0.0898405 0)
(2.39298 0.748691 0)
(0.83192 0.681891 0)
(0.793513 0.602912 0)
(0.794639 0.627378 0)
(0.80695 0.678769 0)
(0.835327 0.745897 0)
(0.882688 0.789211 0)
(0.947019 0.841065 0)
(1.0329 0.84155 0)
(3 1.52254e-15 0)
(3 1.61246e-14 0)
(3 1.90819e-13 0)
(3 1.88188e-12 0)
(3 1.07271e-11 0)
(3 1.85714e-10 0)
(3 1.10826e-09 0)
(3 -3.38967e-10 0)
(3 4.51148e-08 0)
(3 1.24102e-07 0)
(3.00001 2.98581e-06 0)
(2.99995 1.61697e-05 0)
(3.00062 0.000223982 0)
(2.99863 0.00162843 0)
(3.03431 0.0183307 0)
(3.01981 0.105584 0)
(2.65093 0.587209 0)
(1.12077 0.786704 0)
(0.849981 0.658781 0)
(0.847528 0.654812 0)
(0.85157 0.686749 0)
(0.877304 0.740144 0)
(0.931661 0.781464 0)
(1.00148 0.828403 0)
(1.09328 0.833272 0)
(3 1.60995e-16 0)
(3 9.45391e-15 0)
(3 -2.88315e-14 0)
(3 1.30889e-12 0)
(3 2.21682e-12 0)
(3 8.14334e-11 0)
(3 4.18047e-10 0)
(3 -1.9037e-09 0)
(3 5.59157e-08 0)
(3 -1.87949e-08 0)
(3 2.17483e-06 0)
(3.00001 4.90592e-06 0)
(3.00011 0.000116468 0)
(3.0007 0.000729774 0)
(3.00878 0.00764495 0)
(3.06729 0.0811342 0)
(2.86039 0.434526 0)
(1.57319 0.881425 0)
(0.857147 0.695765 0)
(0.878298 0.69037 0)
(0.892696 0.710864 0)
(0.912956 0.750672 0)
(0.962842 0.779512 0)
(1.02572 0.818554 0)
(1.1212 0.820049 0)
(3 3.09828e-16 0)
(3 2.1301e-15 0)
(3 4.06843e-14 0)
(3 2.18559e-13 0)
(3 2.99574e-12 0)
(3 1.95226e-11 0)
(3 2.11536e-10 0)
(3 1.36853e-09 0)
(3 1.46474e-08 0)
(3 1.16237e-07 0)
(2.99999 1.12324e-06 0)
(3.00004 9.36237e-06 0)
(2.99982 8.69605e-05 0)
(3.00192 0.000736927 0)
(2.99598 0.00669429 0)
(3.09852 0.0532444 0)
(3.00691 0.253575 0)
(2.21917 0.970598 0)
(0.938366 0.761693 0)
(0.927685 0.718836 0)
(0.939894 0.721952 0)
(0.959055 0.745541 0)
(1.00069 0.766489 0)
(1.05928 0.794307 0)
(1.1429 0.800632 0)
(3 4.34762e-16 0)
(3 5.69141e-15 0)
(3 1.46772e-13 0)
(3 -7.47614e-13 0)
(3 2.00157e-12 0)
(3 8.66498e-12 0)
(3 1.09625e-10 0)
(3 2.76397e-09 0)
(3 -1.21415e-09 0)
(3 5.73225e-08 0)
(3 9.52459e-08 0)
(3 1.18049e-06 0)
(3.00002 2.2366e-05 0)
(3.00032 -0.000251737 0)
(3.00117 0.00418612 0)
(3.0306 -0.10658 0)
(3.04526 0.180824 0)
(2.64571 0.817225 0)
(1.23318 0.854065 0)
(0.983974 0.760555 0)
(0.98452 0.742585 0)
(1.00184 0.754299 0)
(1.03654 0.768531 0)
(1.08578 0.788781 0)
(1.16061 0.790451 0)
(3 1.61191e-16 0)
(3 1.77061e-15 0)
(3 1.12188e-14 0)
(3 8.44879e-14 0)
(3 6.34547e-13 0)
(3 6.8538e-12 0)
(3 5.13782e-11 0)
(3 4.89626e-10 0)
(3 4.28693e-09 0)
(3 4.11867e-08 0)
(3 3.33483e-07 0)
(3.00002 3.0861e-06 0)
(2.99999 2.22257e-05 0)
(2.99893 0.000231394 0)
(3.00797 0.0018458 0)
(2.97052 0.0171077 0)
(3.16056 0.125259 0)
(2.9505 0.58649 0)
(1.75241 0.925764 0)
(1.02781 0.79307 0)
(1.03168 0.761268 0)
(1.04632 0.767292 0)
(1.07528 0.773815 0)
(1.11709 0.784468 0)
(1.1789 0.7851 0)
(3 -1.18591e-15 0)
(3 4.90157e-15 0)
(3 4.02401e-14 0)
(3 -6.64494e-14 0)
(3 9.13317e-13 0)
(3 8.42085e-12 0)
(3 7.75879e-11 0)
(3 2.18413e-09 0)
(3 -1.00506e-09 0)
(3 6.23014e-08 0)
(3 -8.8926e-09 0)
(3 2.95106e-06 0)
(3.00001 2.88407e-05 0)
(3.00003 5.99278e-06 0)
(3.00067 -0.000490258 0)
(3.00198 0.00675232 0)
(3.05712 -0.231719 0)
(3.05884 0.390059 0)
(2.37422 1.04657 0)
(1.15613 0.86348 0)
(1.07511 0.825451 0)
(1.08435 0.786198 0)
(1.10842 0.783976 0)
(1.14693 0.786152 0)
(1.20064 0.78263 0)
(3 -4.821e-18 0)
(3 1.68098e-16 0)
(3 4.45534e-15 0)
(3 3.18114e-14 0)
(3 2.97753e-13 0)
(3 2.47796e-12 0)
(3 2.05453e-11 0)
(3 1.71743e-10 0)
(3 1.21237e-09 0)
(3 1.09937e-08 0)
(3 8.79782e-08 0)
(3 7.28292e-07 0)
(3.00003 6.13646e-06 0)
(3 4.27262e-05 0)
(2.99831 0.000416382 0)
(3.01438 0.00317626 0)
(2.94024 0.0281085 0)
(3.23577 0.227135 0)
(2.88642 0.826984 0)
(1.57999 0.940446 0)
(1.15199 0.840957 0)
(1.13599 0.800654 0)
(1.15222 0.793797 0)
(1.18245 0.791422 0)
(1.226 0.786708 0)
(3 -1.24254e-16 0)
(3 1.61623e-15 0)
(3 -4.21238e-15 0)
(3 1.23603e-14 0)
(3 1.10528e-12 0)
(3 -1.84577e-13 0)
(3 2.3412e-11 0)
(3 -1.75641e-11 0)
(3 1.62588e-09 0)
(3 -5.94202e-10 0)
(3 8.19313e-08 0)
(3 7.92932e-08 0)
(3 3.64229e-06 0)
(3.00002 4.46181e-05 0)
(3.00006 -5.78038e-05 0)
(3.00089 0.00065308 0)
(3.00599 0.0178891 0)
(3.06378 -0.354391 0)
(3.0782 0.610397 0)
(2.23509 1.05082 0)
(1.20534 0.884775 0)
(1.17875 0.833039 0)
(1.1914 0.814908 0)
(1.21491 0.803462 0)
(1.25251 0.792236 0)
(3 8.01349e-17 0)
(3 2.60967e-16 0)
(3 1.28928e-15 0)
(3 3.21868e-15 0)
(3 6.86177e-14 0)
(3 4.22803e-13 0)
(3 4.3573e-12 0)
(3 2.98628e-11 0)
(3 2.88207e-10 0)
(3 2.17726e-09 0)
(3 1.88905e-08 0)
(3 1.49032e-07 0)
(3 1.22818e-06 0)
(3.00004 1.0104e-05 0)
(3 7.18171e-05 0)
(2.99757 0.000681047 0)
(3.02223 0.00549746 0)
(2.9077 0.0431726 0)
(3.31428 0.368866 0)
(2.86555 1.00826 0)
(1.55759 0.970219 0)
(1.25832 0.899618 0)
(1.23725 0.83843 0)
(1.25212 0.826011 0)
(1.28049 0.810983 0)
(3 -1.21162e-16 0)
(3 2.2512e-15 0)
(3 -3.77921e-15 0)
(3 5.10709e-15 0)
(3 5.81406e-14 0)
(3 1.18865e-13 0)
(3 4.64012e-12 0)
(3 1.94283e-11 0)
(3 2.67203e-11 0)
(3 1.53201e-09 0)
(3 2.61671e-10 0)
(3 1.05739e-07 0)
(3 -1.73997e-07 0)
(3 6.15717e-06 0)
(3.00002 6.9199e-05 0)
(3.00007 -1.84176e-05 0)
(3.00155 0.000308799 0)
(3.00725 0.0156803 0)
(3.08935 -0.431217 0)
(3.07889 0.731825 0)
(2.15185 1.03858 0)
(1.32754 0.906237 0)
(1.27923 0.87207 0)
(1.29907 0.835313 0)
(1.31869 0.818175 0)
(3 -1.27742e-17 0)
(3 5.18242e-17 0)
(3 1.22643e-16 0)
(3 1.36251e-15 0)
(3 1.38921e-14 0)
(3 1.05863e-13 0)
(3 8.62782e-13 0)
(3 6.76198e-12 0)
(3 4.90085e-11 0)
(3 4.33614e-10 0)
(3 3.32383e-09 0)
(3 2.8123e-08 0)
(3 1.92337e-07 0)
(2.99999 1.77645e-06 0)
(3.00007 1.44779e-05 0)
(2.99972 0.000106154 0)
(3.00247 0.000949053 0)
(2.99831 0.00633581 0)
(2.87711 0.0553838 0)
(3.39288 0.49322 0)
(2.8558 1.11047 0)
(1.6204 0.996574 0)
(1.36045 0.954102 0)
(1.33666 0.870879 0)
(1.35086 0.854439 0)
(3 7.70739e-17 0)
(3 2.36328e-17 0)
(3 7.51071e-18 0)
(3 -1.35137e-16 0)
(3 1.57018e-14 0)
(3 9.12295e-14 0)
(3 1.32422e-12 0)
(3 9.38871e-12 0)
(3 -1.18195e-11 0)
(3 3.18156e-10 0)
(3 1.54369e-09 0)
(3 2.28009e-08 0)
(3 3.12188e-07 0)
(3 1.58172e-08 0)
(3 1.13125e-05 0)
(3.00002 7.00821e-06 0)
(3.00018 0.000569791 0)
(3.00192 0.00198455 0)
(3.00771 0.0150289 0)
(3.10594 -0.453958 0)
(3.09446 0.78386 0)
(2.1861 1.03381 0)
(1.43641 0.935348 0)
(1.38033 0.906901 0)
(1.39871 0.859064 0)
(3 4.48963e-17 0)
(3 8.5211e-17 0)
(3 1.80908e-16 0)
(3 5.90903e-16 0)
(3 2.26924e-15 0)
(3 2.17701e-14 0)
(3 1.37487e-13 0)
(3 1.40567e-12 0)
(3 9.32673e-12 0)
(3 8.14715e-11 0)
(3 6.41482e-10 0)
(3 5.22547e-09 0)
(3 4.03857e-08 0)
(3 2.81403e-07 0)
(3 2.38919e-06 0)
(3.00006 1.80654e-05 0)
(2.99975 0.000144408 0)
(3.00314 0.00115295 0)
(2.99723 0.00691834 0)
(2.87502 0.062772 0)
(3.44229 0.54494 0)
(2.90451 1.12669 0)
(1.71486 1.0145 0)
(1.46665 0.986302 0)
(1.4285 0.907193 0)
(3 7.05641e-16 0)
(3 -1.37072e-15 0)
(3 2.03579e-15 0)
(3 -2.54622e-15 0)
(3 4.5987e-15 0)
(3 5.91001e-15 0)
(3 1.41477e-13 0)
(3 4.9296e-13 0)
(3 7.91656e-12 0)
(3 8.54429e-11 0)
(3 5.26622e-11 0)
(3 2.68026e-09 0)
(3 4.90378e-09 0)
(3 1.62349e-07 0)
(3 2.30367e-07 0)
(3 9.76927e-06 0)
(3.00002 1.82774e-05 0)
(3.00022 0.000618176 0)
(3.00188 0.00235469 0)
(3.00866 0.0170127 0)
(3.10183 -0.418322 0)
(3.14929 0.801996 0)
(2.29377 1.04839 0)
(1.53012 0.958458 0)
(1.47632 0.940626 0)
(3 -1.02638e-16 0)
(3 -2.00249e-16 0)
(3 -1.32302e-16 0)
(3 -7.11749e-16 0)
(3 3.34582e-16 0)
(3 3.62422e-15 0)
(3 2.82845e-14 0)
(3 2.16182e-13 0)
(3 1.81131e-12 0)
(3 1.29625e-11 0)
(3 9.6066e-11 0)
(3 7.43435e-10 0)
(3 5.79125e-09 0)
(3 4.44541e-08 0)
(3 3.43218e-07 0)
(3 2.69002e-06 0)
(3.00004 2.06846e-05 0)
(2.99984 0.000158718 0)
(3.00244 0.00122625 0)
(2.99893 0.00766004 0)
(2.89787 0.0640781 0)
(3.43355 0.511603 0)
(2.98513 1.12865 0)
(1.85053 1.03433 0)
(1.52586 1.01121 0)
(3 3.28441e-17 0)
(3 9.52987e-17 0)
(3 8.74657e-17 0)
(3 -5.36665e-17 0)
(3 -4.79514e-16 0)
(3 2.92384e-15 0)
(3 1.91467e-14 0)
(3 2.19156e-14 0)
(3 6.5396e-13 0)
(3 1.97282e-12 0)
(3 3.0167e-11 0)
(3 4.37417e-11 0)
(3 2.13284e-09 0)
(3 5.68679e-09 0)
(3 1.2405e-07 0)
(3 4.26964e-07 0)
(3 7.51441e-06 0)
(3.00006 4.6145e-05 0)
(3.00001 0.000553878 0)
(3.00324 0.00345754 0)
(3.00184 0.00247927 0)
(3.14656 -0.153024 0)
(3.26464 0.762142 0)
(2.51745 1.07388 0)
(1.6325 0.971856 0)
(3 -2.099e-33 0)
(3 -1.53957e-16 0)
(3 -5.13189e-17 0)
(3 1.82485e-16 0)
(3 -5.76487e-18 0)
(3 2.59299e-16 0)
(3 8.44648e-16 0)
(3 3.20539e-14 0)
(3 6.7254e-14 0)
(3 1.74647e-12 0)
(3 5.52207e-12 0)
(3 9.04949e-11 0)
(3 3.92583e-10 0)
(3 5.13897e-09 0)
(3 2.64781e-08 0)
(3 3.00477e-07 0)
(3 1.30822e-06 0)
(2.99996 1.77121e-05 0)
(3.00034 0.000109798 0)
(2.99898 0.00104649 0)
(3.01375 0.00678985 0)
(2.93801 0.0587204 0)
(3.3751 0.406041 0)
(3.09435 1.04364 0)
(2.03815 1.04597 0)
(3 -1.02638e-16 0)
(3 -2.66967e-16 0)
(3 -2.44868e-16 0)
(3 -3.11983e-16 0)
(3 -3.05748e-16 0)
(3 -5.44767e-16 0)
(3 2.22158e-15 0)
(3 4.95164e-15 0)
(3 1.61047e-13 0)
(3 8.11862e-13 0)
(3 1.13529e-11 0)
(3 7.94191e-11 0)
(3 1.39339e-10 0)
(3 3.35435e-09 0)
(3 1.46142e-08 0)
(3 2.27977e-07 0)
(3 1.42846e-06 0)
(3 2.20286e-06 0)
(3.00006 4.62597e-05 0)
(2.99992 0.000138757 0)
(3.0027 0.0020623 0)
(3.00113 0.00656223 0)
(3.13173 0.0155592 0)
(3.35471 0.632048 0)
(2.71683 1.04236 0)
(3 -2.05274e-16 0)
(3 6.72438e-21 0)
(3 -3.07915e-16 0)
(3 -4.5966e-16 0)
(3 -5.84207e-16 0)
(3 -4.3344e-16 0)
(3 -1.34905e-16 0)
(3 1.54934e-15 0)
(3 2.57673e-14 0)
(3 1.27806e-13 0)
(3 1.53453e-12 0)
(3 9.09393e-12 0)
(3 9.03802e-11 0)
(3 -2.53364e-09 0)
(3 5.20115e-09 0)
(3 -2.67448e-08 0)
(3 2.33686e-07 0)
(3 1.12351e-06 0)
(3 1.33746e-05 0)
(3.00013 7.66318e-05 0)
(2.99969 0.000775303 0)
(3.00713 0.00512079 0)
(2.98201 0.0448793 0)
(3.33416 0.340928 0)
(3.19735 0.940464 0)
(3 -6.04381e-17 0)
(3 1.53957e-16 0)
(3 2.56595e-16 0)
(3 2.56595e-16 0)
(3 1.64022e-16 0)
(3 4.06371e-16 0)
(3 5.70917e-16 0)
(3 1.84833e-15 0)
(3 6.3234e-15 0)
(3 8.95866e-14 0)
(3 5.36788e-13 0)
(3 5.34313e-12 0)
(3 2.91237e-11 0)
(3 2.4843e-10 0)
(3 1.55514e-09 0)
(3 1.25428e-08 0)
(3 -2.31966e-09 0)
(3 4.99953e-07 0)
(3 5.40019e-07 0)
(3.00001 2.57428e-05 0)
(3.00013 4.63004e-05 0)
(3.00077 0.00116342 0)
(3.00564 0.00734442 0)
(3.10062 0.0601936 0)
(3.40354 0.521649 0)
(3 5.13189e-17 0)
(3 3.84822e-17 0)
(3 2.05276e-16 0)
(3 1.23118e-16 0)
(3 2.56477e-16 0)
(3 1.34802e-16 0)
(3 5.98849e-16 0)
(3 9.13789e-16 0)
(3 2.02874e-15 0)
(3 5.32368e-16 0)
(3 9.13306e-15 0)
(3 -6.77722e-13 0)
(3 1.73259e-11 0)
(3 -1.06205e-10 0)
(3 1.96768e-10 0)
(3 1.83062e-09 0)
(3 2.48353e-08 0)
(3 1.9398e-07 0)
(3 1.61001e-06 0)
(3.00001 -1.60488e-06 0)
(3.00001 4.91876e-05 0)
(3.00015 0.00167893 0)
(3.00177 -0.0227793 0)
(3.0034 0.0371361 0)
(3.20184 -0.0163888 0)
(3 1.53957e-16 0)
(3 1.53957e-16 0)
(3 -2.37999e-17 0)
(3 2.38527e-16 0)
(3 3.4305e-16 0)
(3 2.98804e-16 0)
(3 3.86359e-16 0)
(3 3.56988e-16 0)
(3 1.70667e-15 0)
(3 2.15998e-15 0)
(3 7.02167e-14 0)
(3 -1.28963e-13 0)
(3 2.69798e-12 0)
(3 1.85491e-11 0)
(3 -2.11588e-10 0)
(3 1.56905e-09 0)
(3 3.09712e-09 0)
(3 -1.70148e-09 0)
(3 1.17618e-07 0)
(3 2.30884e-06 0)
(2.99999 1.5752e-05 0)
(3.00002 0.000117561 0)
(2.99936 0.000962436 0)
(3.01997 0.00643292 0)
(2.96354 0.0570793 0)
(3 -1.02638e-16 0)
(3 -6.7088e-18 0)
(3 3.60187e-17 0)
(3 7.28588e-17 0)
(3 1.51872e-16 0)
(3 3.54745e-16 0)
(3 3.17998e-16 0)
(3 6.82467e-16 0)
(3 1.12181e-15 0)
(3 1.24436e-15 0)
(3 4.69469e-15 0)
(3 1.32118e-14 0)
(3 2.45491e-13 0)
(3 -3.80659e-13 0)
(3 1.00126e-11 0)
(3 8.4039e-11 0)
(3 -7.34495e-11 0)
(3 4.18195e-09 0)
(3 -4.22456e-08 0)
(3 -7.26897e-07 0)
(2.99999 -9.07938e-06 0)
(3.00007 -8.6318e-05 0)
(2.99968 -0.000935006 0)
(3.00254 0.000672687 0)
(2.99968 0.00653527 0)
(3 5.13189e-17 0)
(3 1.4543e-16 0)
(3 -4.42227e-17 0)
(3 1.59266e-16 0)
(3 1.26e-16 0)
(3 2.4603e-16 0)
(3 2.23225e-16 0)
(3 3.99829e-16 0)
(3 4.70599e-18 0)
(3 2.23849e-16 0)
(3 6.1537e-15 0)
(3 5.86401e-15 0)
(3 5.18557e-14 0)
(3 1.86449e-12 0)
(3 -6.82036e-12 0)
(3 8.92484e-11 0)
(3 3.01535e-10 0)
(3 3.55328e-09 0)
(3 2.91014e-08 0)
(3 2.13023e-07 0)
(3 2.84189e-07 0)
(2.99998 9.11964e-06 0)
(2.99998 3.70277e-05 0)
(2.99991 0.000597376 0)
(3.00306 0.00403884 0)
(3 1.17459e-16 0)
(3 3.01761e-16 0)
(3 5.35015e-16 0)
(3 -4.65146e-17 0)
(3 2.59225e-16 0)
(3 -5.69336e-16 0)
(3 -8.79431e-16 0)
(3 -9.72561e-16 0)
(3 -1.30982e-15 0)
(3 -1.57749e-15 0)
(3 -1.39469e-15 0)
(3 2.36265e-16 0)
(3 6.97257e-15 0)
(3 -3.6963e-15 0)
(3 -7.07474e-14 0)
(3 -4.63717e-12 0)
(3 4.17129e-12 0)
(3 -5.53896e-10 0)
(3 -2.85986e-09 0)
(3 -6.32691e-08 0)
(3 -7.79147e-08 0)
(3.00001 -4.3018e-06 0)
(2.99997 -2.23432e-05 0)
(3.00022 1.33643e-05 0)
(2.99952 0.000771326 0)
(3 -5.13189e-17 0)
(3 -2.56595e-16 0)
(3 -2.56595e-16 0)
(3 -3.07913e-16 0)
(3 -2.56595e-16 0)
(3 -2.5464e-16 0)
(3 -2.66533e-16 0)
(3 -2.23958e-16 0)
(3 -8.71866e-17 0)
(3 1.43072e-16 0)
(3 -2.06118e-16 0)
(3 1.62247e-15 0)
(3 -1.36959e-14 0)
(3 1.38142e-13 0)
(3 -1.26714e-13 0)
(3 8.76112e-12 0)
(3 7.22634e-11 0)
(3 -7.21242e-12 0)
(3 3.97168e-09 0)
(3 -2.57478e-09 0)
(3 1.03874e-07 0)
(3 1.27278e-06 0)
(3 2.22526e-06 0)
(3 4.07501e-05 0)
(3.0001 1.65362e-05 0)
(3 2.06986e-17 0)
(3 -1.25821e-16 0)
(3 1.02587e-16 0)
(3 3.07821e-16 0)
(3 4.16857e-16 0)
(3 3.72637e-16 0)
(3 5.54341e-16 0)
(3 4.0693e-16 0)
(3 3.58951e-16 0)
(3 4.06397e-16 0)
(3 2.71873e-16 0)
(3 1.2728e-16 0)
(3 1.38007e-15 0)
(3 3.92752e-15 0)
(3 1.51496e-14 0)
(3 -1.06789e-13 0)
(3 4.15201e-12 0)
(3 -3.11167e-11 0)
(3 -1.43277e-11 0)
(3 -6.1656e-10 0)
(3 5.87517e-09 0)
(3 -1.82142e-08 0)
(3 4.57235e-08 0)
(3 4.99884e-06 0)
(2.99991 5.78259e-05 0)
(3 1.53957e-16 0)
(3 2.90643e-16 0)
(3 1.82139e-16 0)
(3 1.02638e-16 0)
(3 1.53957e-16 0)
(3 9.80352e-17 0)
(3 2.0988e-16 0)
(3 3.07922e-16 0)
(3 3.07915e-16 0)
(3 3.07627e-16 0)
(3 2.8473e-16 0)
(3 5.1195e-16 0)
(3 8.64481e-16 0)
(3 9.10621e-15 0)
(3 8.52043e-14 0)
(3 4.01777e-13 0)
(3 3.95643e-12 0)
(3 2.17884e-11 0)
(3 1.48459e-10 0)
(3 -6.18476e-10 0)
(3 1.0326e-08 0)
(3 9.20879e-08 0)
(3 5.67713e-08 0)
(3 2.271e-06 0)
(3 -6.7571e-06 0)
(3 -1.02638e-16 0)
(3 -3.59232e-16 0)
(3 -3.77615e-16 0)
(3 -7.69784e-16 0)
(3 -7.69784e-16 0)
(3 -7.14689e-16 0)
(3 -6.19603e-16 0)
(3 -6.06177e-16 0)
(3 -6.25477e-16 0)
(3 -5.13189e-16 0)
(3 -4.67946e-16 0)
(3 -4.29388e-16 0)
(3 -2.92417e-16 0)
(3 -1.33463e-16 0)
(3 1.06891e-14 0)
(3 3.25185e-14 0)
(3 4.64224e-13 0)
(3 2.11642e-12 0)
(3 1.61316e-11 0)
(3 -1.79507e-11 0)
(3 9.17923e-10 0)
(3 1.04132e-09 0)
(3 2.22746e-08 0)
(3 5.07667e-07 0)
(3 3.98859e-06 0)
(3 -1.02638e-16 0)
(3 -1.53957e-16 0)
(3 -1.53957e-16 0)
(3 -5.13189e-17 0)
(3 -5.13189e-17 0)
(3 -1.02638e-16 0)
(3 -5.13189e-17 0)
(3 -5.64508e-16 0)
(3 -7.18465e-16 0)
(3 -8.72421e-16 0)
(3 -9.2374e-16 0)
(3 -8.7166e-16 0)
(3 -1.79891e-15 0)
(3 2.29107e-16 0)
(3 3.10753e-15 0)
(3 4.94425e-14 0)
(3 1.76115e-13 0)
(3 2.13796e-12 0)
(3 9.32953e-12 0)
(3 -1.31963e-11 0)
(3 5.1691e-10 0)
(3 4.56446e-09 0)
(3 1.55079e-08 0)
(3 1.28257e-07 0)
(3 5.54712e-08 0)
(3 5.13189e-17 0)
(3 -5.13189e-17 0)
(3 5.13189e-17 0)
(3 9.19145e-18 0)
(3 9.34464e-17 0)
(3 -1.02638e-16 0)
(3 -1.02638e-16 0)
(3 -1.02638e-16 0)
(3 -1.02638e-16 0)
(3 -3.07913e-16 0)
(3 -3.50331e-16 0)
(3 -2.448e-16 0)
(3 -2.61747e-16 0)
(3 -7.02784e-17 0)
(3 3.51831e-16 0)
(3 3.98404e-15 0)
(3 1.42629e-14 0)
(3 2.92797e-13 0)
(3 9.35917e-13 0)
(3 3.21216e-12 0)
(3 5.97309e-11 0)
(3 1.182e-10 0)
(3 9.98564e-10 0)
(3 2.55514e-08 0)
(3 1.64498e-07 0)
(3 5.13189e-17 0)
(3 1.55253e-16 0)
(3 5.00227e-17 0)
(3 6.51061e-17 0)
(3 3.75317e-17 0)
(3 -2.56595e-16 0)
(3 -5.13189e-16 0)
(3 -6.67146e-16 0)
(3 -8.72421e-16 0)
(3 -8.72421e-16 0)
(3 -8.72421e-16 0)
(3 -9.52307e-16 0)
(3 -8.67427e-16 0)
(3 -4.88566e-16 0)
(3 -8.51373e-16 0)
(3 1.55367e-15 0)
(3 1.7751e-14 0)
(3 1.47507e-13 0)
(3 -3.58149e-13 0)
(3 9.53883e-12 0)
(3 -6.50655e-12 0)
(3 1.21497e-10 0)
(3 8.05949e-10 0)
(3 2.48089e-09 0)
(3 1.81993e-08 0)
(3 5.13189e-17 0)
(3 2.05276e-16 0)
(3 3.07913e-16 0)
(3 3.07913e-16 0)
(3 4.10551e-16 0)
(3 4.6187e-16 0)
(3 4.6187e-16 0)
(3 4.56793e-16 0)
(3 5.76177e-16 0)
(3 2.44723e-16 0)
(3 2.99583e-16 0)
(3 -3.2029e-16 0)
(3 -6.28599e-16 0)
(3 -7.92436e-16 0)
(3 -1.09316e-15 0)
(3 -6.3628e-16 0)
(3 -7.99597e-15 0)
(3 -4.55417e-14 0)
(3 2.18042e-13 0)
(3 -1.91414e-12 0)
(3 1.44626e-12 0)
(3 -1.69852e-10 0)
(3 -9.41078e-10 0)
(3 5.21689e-09 0)
(3 -2.34367e-09 0)
(3 -5.13189e-17 0)
(3 -1.02638e-16 0)
(3 -3.07913e-16 0)
(3 -3.74676e-16 0)
(3 -4.49955e-16 0)
(3 -5.28839e-16 0)
(3 -2.92263e-16 0)
(3 -1.09732e-16 0)
(3 -5.13189e-17 0)
(3 -1.53957e-16 0)
(3 -2.05276e-16 0)
(3 -3.59232e-16 0)
(3 -3.59232e-16 0)
(3 -5.13189e-16 0)
(3 -4.25467e-16 0)
(3 3.56621e-16 0)
(3 -1.11467e-14 0)
(3 -2.13496e-14 0)
(3 1.14812e-13 0)
(3 -2.57095e-13 0)
(3 6.23513e-12 0)
(3 -2.6845e-10 0)
(3 -9.33827e-10 0)
(3 9.58784e-10 0)
(3 -9.19562e-09 0)
(3 -1.02638e-16 0)
(3 -2.56595e-16 0)
(3 -5.64508e-16 0)
(3 -7.18465e-16 0)
(3 -8.72421e-16 0)
(3 -9.75059e-16 0)
(3 -9.11147e-16 0)
(3 -1.15294e-15 0)
(3 -1.10509e-15 0)
(3 -9.2374e-16 0)
(3 -6.15827e-16 0)
(3 -2.56595e-16 0)
(3 5.13189e-17 0)
(3 3.59232e-16 0)
(3 7.16721e-16 0)
(3 1.06588e-15 0)
(3 1.40507e-15 0)
(3 2.16495e-15 0)
(3 1.92638e-14 0)
(3 -9.86502e-14 0)
(3 -3.49204e-13 0)
(3 -6.7937e-12 0)
(3 -4.22673e-11 0)
(3 -9.93765e-11 0)
(3 -1.09945e-09 0)
(1.24001 1.10411 0)
(0.583307 0.653768 0)
(-0.576101 0.0370469 0)
(-0.422456 -0.156689 0)
(-0.587394 -0.163005 0)
(-0.458601 -0.092012 0)
(-0.671434 0.0804773 0)
(-0.984783 0.13808 0)
(-1.16598 0.139867 0)
(-1.24618 0.0981224 0)
(-1.265 0.061778 0)
(-1.25613 0.0291358 0)
(-1.25272 0.0280889 0)
(-1.26696 0.0181072 0)
(-1.35662 -0.00382376 0)
(-1.42895 -0.0254147 0)
(-1.47436 -0.0240121 0)
(-1.49471 -0.0203722 0)
(-1.4991 -0.0177236 0)
(-1.48839 -0.0132934 0)
(-1.48282 -0.0110826 0)
(-1.47956 -0.010131 0)
(-1.47825 -0.00841471 0)
(-1.47865 -0.00560523 0)
(-1.48515 -0.00258316 0)
(-1.48915 -0.000666592 0)
(-1.49128 0.00334305 0)
(-1.49299 0.00336029 0)
(-1.49315 0.00306189 0)
(-1.4915 0.000353493 0)
(-1.48309 0.0015767 0)
(-1.45566 0.00120116 0)
(-1.43067 0.00499191 0)
(-1.36991 0.0076893 0)
(-1.29883 0.00343249 0)
(-1.22618 -0.00307015 0)
(-1.15244 -0.015974 0)
(-1.06616 -0.0305853 0)
(-0.973411 -0.0462738 0)
(-0.885931 -0.0535935 0)
(-0.804037 -0.0458268 0)
(-0.714122 -0.0336817 0)
(-0.620327 -0.0253013 0)
(-0.526533 -0.00860693 0)
(-0.433529 0.00151151 0)
(-0.355505 0.0164163 0)
(-0.295398 0.0105099 0)
(-0.201041 -0.0128411 0)
(-0.114031 -0.0141189 0)
(-0.0399556 -0.0286689 0)
(0.0588471 -0.0299062 0)
(0.125443 -0.0234405 0)
(0.198372 -0.0262922 0)
(0.265998 -0.02675 0)
(0.331069 -0.0278265 0)
(0.391833 -0.0277585 0)
(0.44913 -0.0271331 0)
(0.504569 -0.0264002 0)
(0.556824 -0.0246726 0)
(0.604838 -0.0225289 0)
(0.649564 -0.020937 0)
(0.692148 -0.0196961 0)
(0.732942 -0.0184154 0)
(0.771665 -0.0169742 0)
(0.808013 -0.0157134 0)
(0.842417 -0.0146879 0)
(0.875232 -0.0136742 0)
(0.906565 -0.0127212 0)
(0.93649 -0.0119101 0)
(0.964982 -0.0110485 0)
(0.992105 -0.010323 0)
(1.01827 -0.00958369 0)
(1.04347 -0.00896041 0)
(1.06813 -0.00841688 0)
(1.09177 -0.00783106 0)
(1.11479 -0.00711156 0)
(1.13644 -0.00645312 0)
(1.15756 -0.00580973 0)
(1.17755 -0.00535879 0)
(1.19719 -0.00495337 0)
(1.21587 -0.00466942 0)
(1.23429 -0.00436721 0)
(1.25172 -0.00412247 0)
(1.26891 -0.00382945 0)
(1.28512 -0.00355633 0)
(1.30113 -0.00321298 0)
(1.31629 -0.00289286 0)
(1.33129 -0.00249901 0)
(1.34542 -0.00217568 0)
(1.35944 -0.0018086 0)
(1.37252 -0.00157277 0)
(1.38553 -0.00127446 0)
(1.39753 -0.00111746 0)
(1.40945 -0.000884566 0)
(1.42062 -0.000910358 0)
(1.43161 -0.000684436 0)
(1.44283 -0.000903029 0)
(1.45397 -0.000574762 0)
(1.4659 -0.000670172 0)
(1.47958 0.000618054 0)
(1.26657 1.00469 0)
(1.22122 0.770739 0)
(0.743827 0.592885 0)
(0.670542 0.290703 0)
(0.167094 0.174153 0)
(-0.13848 0.128487 0)
(-0.337302 0.223642 0)
(-0.758265 0.141773 0)
(-0.88557 0.0371582 0)
(-0.934066 -0.0102863 0)
(-0.870374 -0.0497157 0)
(-0.83816 -0.0417372 0)
(-0.83062 -0.0323402 0)
(-0.886583 -0.0157891 0)
(-0.978539 -0.0114406 0)
(-1.05577 0.0356855 0)
(-1.10475 0.0601967 0)
(-1.12145 0.0536058 0)
(-1.11724 0.0242002 0)
(-1.10506 0.0147515 0)
(-1.09756 0.00761816 0)
(-1.09339 0.00578901 0)
(-1.09228 0.00719925 0)
(-1.09253 0.00602482 0)
(-1.10027 0.00575666 0)
(-1.10583 0.000317899 0)
(-1.11524 0.000410311 0)
(-1.12078 -0.00564747 0)
(-1.12377 -0.0030118 0)
(-1.12159 -0.00360046 0)
(-1.11122 -0.00149044 0)
(-1.07862 -0.00650812 0)
(-1.04719 -0.00895707 0)
(-0.994206 -0.0171958 0)
(-0.912336 -0.0295974 0)
(-0.831008 -0.0398029 0)
(-0.75064 -0.0377678 0)
(-0.655361 -0.023251 0)
(-0.535506 -0.0567835 0)
(-0.445542 -0.0395817 0)
(-0.359741 -0.0436939 0)
(-0.232988 -0.0723492 0)
(-0.119668 -0.095494 0)
(0.0205652 -0.117257 0)
(0.16244 -0.132272 0)
(0.292318 -0.125377 0)
(0.426573 -0.133492 0)
(0.540093 -0.135965 0)
(0.618998 -0.120552 0)
(0.694256 -0.115431 0)
(0.756453 -0.109838 0)
(0.806372 -0.0962148 0)
(0.855709 -0.0917554 0)
(0.898105 -0.0855673 0)
(0.936688 -0.0776305 0)
(0.97242 -0.0705991 0)
(1.00423 -0.0646361 0)
(1.03587 -0.0605435 0)
(1.06551 -0.0550895 0)
(1.09346 -0.0495126 0)
(1.12069 -0.045171 0)
(1.14665 -0.0420372 0)
(1.17155 -0.0391916 0)
(1.19534 -0.0360494 0)
(1.21866 -0.0330404 0)
(1.24106 -0.0303674 0)
(1.26274 -0.0281729 0)
(1.28367 -0.0261341 0)
(1.30405 -0.0241887 0)
(1.32357 -0.0221586 0)
(1.34282 -0.0203116 0)
(1.36122 -0.0187618 0)
(1.37922 -0.0175834 0)
(1.39669 -0.0163129 0)
(1.41355 -0.0150972 0)
(1.43016 -0.0139053 0)
(1.44586 -0.0129006 0)
(1.46134 -0.0119173 0)
(1.47603 -0.0110624 0)
(1.49045 -0.0101282 0)
(1.50411 -0.00925264 0)
(1.51753 -0.00825695 0)
(1.53018 -0.0073259 0)
(1.54258 -0.0063299 0)
(1.55439 -0.00550386 0)
(1.56596 -0.00468949 0)