/*--------------------------------*- C++ -*----------------------------------*\
| =========                 |                                                 |
| \\      /  F ield         | OpenFOAM: The Open Source CFD Toolbox           |
|  \\    /   O peration     | Version:  v2106                                 |
|   \\  /    A nd           | Website:  www.openfoam.com                      |
|    \\/     M anipulation  |                                                 |
\*---------------------------------------------------------------------------*/
FoamFile
{
    version     2.0;
    format      ascii;
    arch        "LSB;label=32;scalar=64";
    class       volScalarField;
    location    "20";
    object      Mo;
}
// * * * * * * * * * * * * * * * * * * * * * * * * * * * * * * * * * * * * * //

dimensions      [0 0 0 0 0 0 0];

internalField   nonuniform List<scalar> 
5250
(
3.01265
3.01265
3.01265
3.01265
3.01265
3.01265
3.01265
3.01264
3.01264
3.01236
3.01101
2.99164
2.89165
2.483
1.48469
0.428694
0.307001
0.333154
0.291189
0.243194
0.209014
0.160285
0.117543
0.0694414
0.0318436
3.01265
3.01265
3.01265
3.01265
3.01265
3.01265
3.01265
3.01264
3.01264
3.01235
3.01113
2.99152
2.89613
2.49411
1.49856
0.441757
0.298553
0.332856
0.289647
0.241945
0.209987
0.164467
0.126823
0.0870064
0.0612609
3.01265
3.01265
3.01265
3.01265
3.01265
3.01265
3.01265
3.01265
3.01263
3.01242
3.01102
2.9939
2.90052
2.51394
1.52357
0.478632
0.284777
0.334861
0.288728
0.242199
0.21425
0.17769
0.147922
0.116295
0.0989098
3.01265
3.01265
3.01265
3.01265
3.01265
3.01265
3.01265
3.01265
3.01263
3.01246
3.01096
2.99744
2.90366
2.55612
1.59213
0.545112
0.266074
0.338436
0.290162
0.252429
0.230433
0.20106
0.176299
0.151134
0.138298
3.01265
3.01265
3.01265
3.01265
3.01265
3.01265
3.01265
3.01265
3.01263
3.01249
3.01122
3.00009
2.91838
2.61148
1.71935
0.651564
0.263013
0.357595
0.308115
0.273711
0.254012
0.228247
0.208397
0.189912
0.181631
3.01265
3.01265
3.01265
3.01265
3.01265
3.01265
3.01265
3.01265
3.01264
3.01253
3.01154
3.0035
2.9366
2.68449
1.92496
0.807414
0.277599
0.389123
0.339789
0.301202
0.283048
0.261568
0.247667
0.235153
0.230066
3.01265
3.01265
3.01265
3.01265
3.01265
3.01265
3.01265
3.01265
3.01264
3.01256
3.01183
3.00582
2.95104
2.73739
2.03862
1.00733
0.317048
0.423368
0.3786
0.334653
0.318987
0.300246
0.291549
0.284562
0.287695
3.01265
3.01265
3.01265
3.01265
3.01265
3.01265
3.01265
3.01265
3.01264
3.0126
3.01203
3.00797
2.96377
2.78742
2.14627
1.20111
0.396332
0.473186
0.432678
0.382764
0.360577
0.346955
0.343819
0.346457
0.360584
3.01265
3.01265
3.01265
3.01265
3.01265
3.01265
3.01265
3.01265
3.01264
3.01262
3.0121
3.0093
2.97323
2.82426
2.24855
1.29997
0.488373
0.526317
0.495531
0.447132
0.416757
0.402584
0.408637
0.411902
0.457729
3.01265
3.01265
3.01265
3.01265
3.01265
3.01265
3.01265
3.01265
3.01264
3.01263
3.01223
3.01027
2.98245
2.85926
2.35691
1.3989
0.558312
0.561658
0.548345
0.51654
0.485721
0.46742
0.481754
0.508048
0.632017
3.01265
3.01265
3.01265
3.01265
3.01265
3.01265
3.01265
3.01265
3.01264
3.01264
3.01233
3.01098
2.99021
2.89138
2.47055
1.52412
0.644641
0.552407
0.578178
0.575736
0.559422
0.544567
0.569001
0.64667
0.863291
3.01265
3.01265
3.01265
3.01265
3.01265
3.01265
3.01265
3.01265
3.01265
3.01263
3.01246
3.01096
2.99829
2.91202
2.58661
1.66752
0.784362
0.531121
0.580394
0.619019
0.628061
0.628123
0.65426
0.758174
0.924837
3.01265
3.01265
3.01265
3.01265
3.01265
3.01265
3.01265
3.01265
3.01265
3.01264
3.01254
3.01166
3.00498
2.94371
2.71499
1.97892
1.01469
0.521484
0.58447
0.624661
0.655625
0.699763
0.732438
0.825486
0.95545
3.01265
3.01265
3.01265
3.01265
3.01265
3.01265
3.01265
3.01265
3.01265
3.01264
3.01259
3.01214
3.00801
2.96648
2.79648
2.20628
1.32312
0.585032
0.615146
0.637514
0.668
0.720159
0.779318
0.868437
0.977054
3.01265
3.01265
3.01265
3.01265
3.01265
3.01265
3.01265
3.01265
3.01265
3.01264
3.01264
3.01216
3.01037
2.97937
2.85827
2.36191
1.50924
0.73984
0.669189
0.670648
0.69175
0.740695
0.804938
0.896203
0.989734
3.01265
3.01265
3.01265
3.01265
3.01265
3.01265
3.01265
3.01265
3.01265
3.01265
3.01264
3.01238
3.01119
2.99355
2.90548
2.51413
1.65562
0.929667
0.713391
0.721743
0.734596
0.768178
0.821653
0.9001
0.98876
3.01265
3.01265
3.01265
3.01265
3.01265
3.01265
3.01265
3.01265
3.01265
3.01265
3.01263
3.01262
3.0113
3.00575
2.93745
2.68352
1.85933
1.19188
0.733805
0.760374
0.77527
0.799087
0.840688
0.905476
0.984913
3.01265
3.01265
3.01265
3.01265
3.01265
3.01265
3.01265
3.01265
3.01265
3.01265
3.01264
3.01262
3.01191
3.00894
2.96519
2.81737
2.26358
1.48564
0.827053
0.799019
0.81066
0.829752
0.863719
0.917064
0.987055
3.01265
3.01265
3.01265
3.01265
3.01265
3.01265
3.01265
3.01265
3.01265
3.01265
3.01264
3.01261
3.01232
3.01001
2.98904
2.86945
2.47101
1.68047
1.01673
0.845641
0.853235
0.869091
0.896064
0.937708
0.994751
3.01265
3.01265
3.01265
3.01265
3.01265
3.01265
3.01265
3.01265
3.01265
3.01265
3.01265
3.01262
3.01267
3.01072
3.00742
2.90796
2.69198
1.89702
1.31027
0.885741
0.897221
0.910307
0.931045
0.962797
1.00805
3.01265
3.01265
3.01265
3.01265
3.01265
3.01265
3.01265
3.01265
3.01265
3.01265
3.01265
3.01264
3.01258
3.01205
3.00773
2.97334
2.80482
2.29612
1.60459
1.00328
0.938086
0.941257
0.958385
0.986371
1.02456
3.01265
3.01265
3.01265
3.01265
3.01265
3.01265
3.01265
3.01265
3.01265
3.01265
3.01265
3.01264
3.01258
3.01257
3.00872
3.01035
2.83336
2.61264
1.86912
1.25008
0.991107
0.981692
0.993209
1.01435
1.04595
3.01265
3.01265
3.01265
3.01265
3.01265
3.01265
3.01265
3.01265
3.01265
3.01265
3.01265
3.01265
3.01264
3.01254
3.0117
3.00551
2.95564
2.75825
2.11275
1.57911
1.04321
1.01761
1.02336
1.04109
1.069
3.01265
3.01265
3.01265
3.01265
3.01265
3.01265
3.01265
3.01265
3.01265
3.01265
3.01265
3.01265
3.01264
3.01257
3.01253
3.00792
3.0109
2.79907
2.56396
1.87387
1.25976
1.06821
1.05983
1.07496
1.09784
3.01265
3.01265
3.01265
3.01265
3.01265
3.01265
3.01265
3.01265
3.01265
3.01265
3.01265
3.01265
3.01265
3.01263
3.0125
3.01136
3.00303
2.93776
2.70762
2.01925
1.59018
1.1197
1.09771
1.10727
1.12574
3.01265
3.01265
3.01265
3.01265
3.01265
3.01265
3.01265
3.01265
3.01265
3.01265
3.01265
3.01265
3.01265
3.01263
3.01255
3.0125
3.00758
3.01159
2.78252
2.50943
1.88231
1.31434
1.15663
1.14398
1.15837
3.01265
3.01265
3.01265
3.01265
3.01265
3.01265
3.01265
3.01265
3.01265
3.01265
3.01265
3.01265
3.01265
3.01265
3.01263
3.01248
3.01117
3.002
2.93014
2.70887
2.05184
1.63728
1.20574
1.18216
1.1871
3.01265
3.01265
3.01265
3.01265
3.01265
3.01265
3.01265
3.01265
3.01265
3.01265
3.01265
3.01265
3.01265
3.01265
3.01263
3.01256
3.01261
3.00743
3.0153
2.78501
2.53915
1.92931
1.39199
1.23425
1.21782
3.01265
3.01265
3.01265
3.01265
3.01265
3.01265
3.01265
3.01265
3.01265
3.01265
3.01265
3.01265
3.01265
3.01265
3.01265
3.01262
3.01249
3.01116
3.00301
2.93073
2.72561
2.11907
1.73353
1.27868
1.25287
3.01265
3.01265
3.01265
3.01265
3.01265
3.01265
3.01265
3.01265
3.01265
3.01265
3.01265
3.01265
3.01265
3.01265
3.01265
3.01264
3.01259
3.01278
3.00887
3.01127
2.81535
2.57543
1.99156
1.4839
1.30513
3.01265
3.01265
3.01265
3.01265
3.01265
3.01265
3.01265
3.01265
3.01265
3.01265
3.01265
3.01265
3.01265
3.01265
3.01265
3.01265
3.01263
3.01258
3.01134
3.00577
2.94177
2.75587
2.19976
1.82932
1.36437
3.01265
3.01265
3.01265
3.01265
3.01265
3.01265
3.01265
3.01265
3.01265
3.01265
3.01265
3.01265
3.01265
3.01265
3.01265
3.01265
3.01265
3.0126
3.01255
3.00945
3.00427
2.85423
2.63377
2.063
1.60181
3.01265
3.01265
3.01265
3.01265
3.01265
3.01265
3.01265
3.01265
3.01265
3.01265
3.01265
3.01265
3.01265
3.01265
3.01265
3.01265
3.01265
3.01263
3.01257
3.01161
3.00675
2.95396
2.77434
2.35659
1.95143
3.01265
3.01265
3.01265
3.01265
3.01265
3.01265
3.01265
3.01265
3.01265
3.01265
3.01265
3.01265
3.01265
3.01265
3.01265
3.01265
3.01265
3.01264
3.01261
3.01263
3.0104
3.00807
2.8978
2.83432
2.23164
3.01265
3.01265
3.01265
3.01265
3.01265
3.01265
3.01265
3.01265
3.01265
3.01265
3.01265
3.01265
3.01265
3.01265
3.01265
3.01265
3.01265
3.01265
3.01264
3.01258
3.0122
3.00852
3.00543
2.81851
2.63607
3.01265
3.01265
3.01265
3.01265
3.01265
3.01265
3.01265
3.01265
3.01265
3.01265
3.01265
3.01265
3.01265
3.01265
3.01265
3.01265
3.01265
3.01265
3.01265
3.01265
3.01248
3.01187
3.00539
2.94368
2.79003
3.01265
3.01265
3.01265
3.01265
3.01265
3.01265
3.01265
3.01265
3.01265
3.01265
3.01265
3.01265
3.01265
3.01265
3.01265
3.01265
3.01265
3.01265
3.01265
3.01265
3.0126
3.0126
3.01003
3.0068
2.88421
3.01265
3.01265
3.01265
3.01265
3.01265
3.01265
3.01265
3.01265
3.01265
3.01265
3.01265
3.01265
3.01265
3.01265
3.01265
3.01265
3.01265
3.01265
3.01265
3.01265
3.01264
3.01257
3.01201
3.00902
2.98226
3.01265
3.01265
3.01265
3.01265
3.01265
3.01265
3.01265
3.01265
3.01265
3.01265
3.01265
3.01265
3.01265
3.01265
3.01265
3.01265
3.01265
3.01265
3.01265
3.01265
3.01264
3.01264
3.01253
3.01149
3.00514
3.01265
3.01265
3.01265
3.01265
3.01265
3.01265
3.01265
3.01265
3.01265
3.01265
3.01265
3.01265
3.01265
3.01265
3.01265
3.01265
3.01265
3.01265
3.01265
3.01265
3.01265
3.01264
3.01263
3.01247
3.01052
3.01265
3.01265
3.01265
3.01265
3.01265
3.01265
3.01265
3.01265
3.01265
3.01265
3.01265
3.01265
3.01265
3.01265
3.01265
3.01265
3.01265
3.01265
3.01265
3.01265
3.01265
3.01265
3.01264
3.01258
3.01253
3.01265
3.01265
3.01265
3.01265
3.01265
3.01265
3.01265
3.01265
3.01265
3.01265
3.01265
3.01265
3.01265
3.01265
3.01265
3.01265
3.01265
3.01265
3.01265
3.01265
3.01265
3.01265
3.01265
3.01262
3.01262
3.01265
3.01265
3.01265
3.01265
3.01265
3.01265
3.01265
3.01265
3.01265
3.01265
3.01265
3.01265
3.01265
3.01265
3.01265
3.01265
3.01265
3.01265
3.01265
3.01265
3.01265
3.01265
3.01265
3.01264
3.01264
3.01265
3.01265
3.01265
3.01265
3.01265
3.01265
3.01265
3.01265
3.01265
3.01265
3.01265
3.01265
3.01265
3.01265
3.01265
3.01265
3.01265
3.01265
3.01265
3.01265
3.01265
3.01265
3.01265
3.01265
3.01264
3.01265
3.01265
3.01265
3.01265
3.01265
3.01265
3.01265
3.01265
3.01265
3.01265
3.01265
3.01265
3.01265
3.01265
3.01265
3.01265
3.01265
3.01265
3.01265
3.01265
3.01265
3.01265
3.01265
3.01265
3.01265
3.01265
3.01265
3.01265
3.01265
3.01265
3.01265
3.01265
3.01265
3.01265
3.01265
3.01265
3.01265
3.01265
3.01265
3.01265
3.01265
3.01265
3.01265
3.01265
3.01265
3.01265
3.01265
3.01265
3.01265
3.01265
3.01265
3.01265
3.01265
3.01265
3.01265
3.01265
3.01265
3.01265
3.01265
3.01265
3.01265
3.01265
3.01265
3.01265
3.01265
3.01265
3.01265
3.01265
3.01265
3.01265
3.01265
3.01265
3.01265
3.01265
3.01265
3.01265
3.01265
3.01265
3.01265
3.01265
3.01265
3.01265
3.01265
3.01265
3.01265
3.01265
3.01265
3.01265
3.01265
3.01265
3.01265
3.01265
3.01265
3.01265
3.01265
3.01265
3.01265
3.01265
3.01265
3.01265
3.01265
3.01265
3.01265
3.01265
3.01265
3.01265
3.01265
3.01265
3.01265
3.01265
3.01265
3.01265
3.01265
3.01265
3.01265
3.01265
3.01265
3.01265
3.01265
3.01265
3.01265
3.01265
3.01265
3.01265
3.01265
3.01265
3.01265
3.01265
3.01265
3.01265
3.01265
3.01265
3.01265
3.01265
3.01265
3.01265
3.01265
3.01265
3.01265
3.01265
3.01265
3.01265
3.01265
3.01265
3.01265
3.01265
3.01265
3.01265
3.01265
3.01265
1.12155
0.593956
0.343619
0.270234
0.371338
0.280821
0.403037
0.602669
0.745048
0.807654
0.820889
0.812834
0.809489
0.815697
0.86789
0.925534
0.971825
0.994418
1.0012
0.994309
0.98815
0.984943
0.983955
0.985674
0.987486
0.991764
0.996161
1.00102
1.00423
1.00584
1.00641
0.994751
0.980319
0.952835
0.907381
0.854457
0.797099
0.73208
0.65994
0.59309
0.530938
0.466499
0.401095
0.338237
0.276528
0.224728
0.187779
0.127113
0.0714263
0.0324893
0.039831
0.0797682
0.12649
0.169653
0.210601
0.248856
0.284928
0.318882
0.351023
0.381358
0.409891
0.436891
0.462672
0.487312
0.510741
0.53273
0.55361
0.573697
0.592981
0.611535
0.629288
0.64649
0.663148
0.679524
0.695681
0.711626
0.727328
0.742754
0.757727
0.772423
0.786498
0.800344
0.813658
0.826817
0.839508
0.852038
0.864019
0.875842
0.887132
0.898281
0.908838
0.919208
0.928739
0.938114
0.946792
0.955413
0.964092
0.973497
0.981254
0.988911
1.09522
0.951569
0.621871
0.454748
0.154251
0.111684
0.236741
0.446302
0.532825
0.571029
0.534512
0.508774
0.501703
0.528646
0.583883
0.640513
0.679124
0.694507
0.695509
0.686867
0.682273
0.67941
0.678563
0.680599
0.682172
0.685784
0.688464
0.694825
0.699928
0.702877
0.703503
0.692064
0.675822
0.650482
0.606262
0.556439
0.499165
0.435372
0.35678
0.293095
0.234458
0.157683
0.098703
0.0696032
0.121519
0.18809
0.264773
0.335421
0.382837
0.428523
0.46887
0.502592
0.537387
0.568388
0.595956
0.621664
0.645195
0.667308
0.688843
0.709528
0.729442
0.748399
0.766864
0.784943
0.802536
0.81935
0.835293
0.850593
0.865386
0.879787
0.893598
0.906981
0.919935
0.932654
0.945228
0.957826
0.9705
0.983222
0.995858
1.00818
1.02021
1.03197
1.04338
1.05456
1.06542
1.07603
1.08631
1.09632
1.10601
1.11552
1.1246
1.13341
1.14161
1.14952
1.15696
1.16432
1.17188
1.1804
1.18772
1.19507
1.05772
1.09175
0.981382
0.841046
0.61354
0.436666
0.35207
0.404201
0.361852
0.273455
0.169492
0.057824
0.0243029
0.0954495
0.153149
0.305797
0.368827
0.406835
0.405685
0.389524
0.377328
0.371542
0.371217
0.374874
0.378168
0.383995
0.388209
0.395014
0.398377
0.399101
0.397247
0.394203
0.376753
0.351045
0.301543
0.244622
0.18549
0.127283
0.117061
0.181472
0.317206
0.418147
0.495304
0.565026
0.610713
0.645415
0.673874
0.705249
0.724477
0.744374
0.762772
0.779617
0.797426
0.815647
0.833361
0.849252
0.864776
0.879326
0.89401
0.909039
0.924195
0.93906
0.953478
0.967654
0.981325
0.994408
1.00731
1.01988
1.03213
1.04426
1.05606
1.06744
1.07847
1.08927
1.1
1.1107
1.12131
1.1319
1.14251
1.15309
1.16347
1.17382
1.18426
1.19446
1.2045
1.21423
1.2237
1.23267
1.24152
1.24998
1.25842
1.26637
1.27413
1.28123
1.28821
1.29488
1.30173
1.3096
1.31657
1.32394
1.07624
1.16897
1.18402
1.13445
1.00719
0.844953
0.667831
0.645697
0.634799
0.591776
0.514682
0.414079
0.306588
0.27562
0.266002
0.295269
0.269394
0.220336
0.178844
0.112181
0.0774257
0.0328686
0.0111979
0.027466
0.0448141
0.0710423
0.0853726
0.108871
0.128817
0.14055
0.150843
0.137263
0.120772
0.0890751
0.0809901
0.158502
0.316836
0.472661
0.613753
0.690034
0.767331
0.813874
0.844814
0.869839
0.891606
0.903115
0.91578
0.932544
0.942128
0.949585
0.959024
0.968288
0.977212
0.986332
0.996347
1.00562
1.01557
1.0251
1.03473
1.04488
1.05565
1.067
1.07832
1.08951
1.10048
1.11104
1.12149
1.13179
1.14177
1.15179
1.16189
1.17178
1.18149
1.19115
1.20087
1.21059
1.22025
1.22986
1.23939
1.2487
1.25799
1.26716
1.27643
1.28579
1.29513
1.30425
1.31307
1.32154
1.32988
1.33812
1.34628
1.35398
1.36146
1.36817
1.37467
1.38084
1.38724
1.39459
1.40187
1.40973
1.09628
1.1798
1.24407
1.2887
1.23827
1.1611
1.06172
0.984882
0.980726
0.929553
0.841287
0.736607
0.626266
0.561061
0.510418
0.507065
0.504748
0.488918
0.457344
0.406323
0.349752
0.291875
0.253816
0.211415
0.187831
0.15525
0.140372
0.115924
0.108531
0.0881606
0.0896622
0.107607
0.172581
0.275778
0.415259
0.595752
0.757058
0.885275
0.977109
1.02693
1.0713
1.09011
1.0961
1.10111
1.10263
1.09954
1.10599
1.11061
1.10891
1.10318
1.1014
1.09958
1.0978
1.10149
1.10539
1.10881
1.11234
1.11683
1.12241
1.12897
1.13626
1.14397
1.15208
1.16068
1.1696
1.17851
1.18754
1.19635
1.205
1.21381
1.22281
1.23176
1.2407
1.24968
1.25856
1.2675
1.27652
1.28569
1.29492
1.30404
1.3132
1.322
1.33057
1.33912
1.34777
1.35646
1.36491
1.37327
1.38152
1.38964
1.39763
1.40514
1.41237
1.41872
1.42491
1.43102
1.4374
1.44462
1.45218
1.46039
1.09726
1.18772
1.25494
1.31815
1.32881
1.30597
1.27419
1.25744
1.27256
1.2735
1.20708
1.11978
1.01766
0.925161
0.852794
0.826969
0.803572
0.771738
0.728557
0.674733
0.620057
0.560995
0.514039
0.462483
0.426281
0.382967
0.354153
0.317666
0.295709
0.27995
0.284931
0.321814
0.415901
0.568032
0.760995
0.942
1.06825
1.17665
1.25538
1.30064
1.33214
1.33473
1.32681
1.30915
1.28484
1.25798
1.23387
1.22364
1.21109
1.19707
1.18839
1.17875
1.16851
1.16586
1.16312
1.16426
1.16555
1.16768
1.17036
1.17401
1.1788
1.18525
1.19199
1.19905
1.20637
1.21379
1.22143
1.22947
1.23763
1.24592
1.25425
1.26245
1.27072
1.27916
1.2878
1.29672
1.30576
1.31485
1.32398
1.33288
1.34158
1.35012
1.35873
1.36741
1.37599
1.38447
1.39272
1.40064
1.40846
1.41628
1.42408
1.43159
1.43864
1.44503
1.45115
1.45733
1.46376
1.4708
1.4788
1.48731
1.07596
1.17575
1.25372
1.31076
1.36033
1.36618
1.37553
1.37888
1.39266
1.42099
1.44283
1.39945
1.34452
1.27997
1.22047
1.16265
1.13913
1.10839
1.06559
1.01089
0.949254
0.881413
0.821488
0.758896
0.711317
0.660133
0.619224
0.574188
0.540582
0.497811
0.496923
0.552751
0.68741
0.864428
1.04807
1.18762
1.29962
1.39016
1.45436
1.49457
1.52506
1.52695
1.51639
1.496
1.46289
1.41696
1.35823
1.3053
1.24859
1.23934
1.23494
1.22657
1.21858
1.20796
1.19843
1.19179
1.19397
1.19602
1.19845
1.20093
1.20385
1.20793
1.21294
1.21896
1.22589
1.23302
1.24029
1.24795
1.25542
1.26281
1.2705
1.27839
1.28642
1.29473
1.30333
1.31204
1.32083
1.32946
1.33817
1.34701
1.35581
1.36455
1.37325
1.38185
1.39033
1.3986
1.40668
1.41449
1.42223
1.43002
1.43786
1.4453
1.45235
1.45857
1.46455
1.47064
1.47701
1.48396
1.49225
1.50095
1.06657
1.15403
1.23938
1.30016
1.35415
1.37641
1.40498
1.42697
1.45885
1.48783
1.52043
1.54469
1.5196
1.48782
1.45558
1.42866
1.41051
1.41022
1.39937
1.36071
1.30745
1.24047
1.17358
1.10423
1.04485
0.987408
0.93259
0.871242
0.830293
0.758524
0.74322
0.81155
0.942221
1.09951
1.2372
1.35349
1.44767
1.52257
1.57202
1.6143
1.63992
1.64572
1.64029
1.62558
1.59999
1.56408
1.51561
1.45191
1.37266
1.3088
1.24484
1.24714
1.24456
1.23942
1.22981
1.22184
1.21471
1.21246
1.21606
1.21949
1.22158
1.22397
1.22753
1.23304
1.24037
1.24772
1.25491
1.26085
1.26736
1.27462
1.28235
1.29028
1.29858
1.30667
1.31473
1.32302
1.33148
1.33992
1.34839
1.35698
1.36565
1.37433
1.38283
1.39131
1.39966
1.40785
1.41568
1.42322
1.43068
1.43821
1.4459
1.45324
1.46026
1.46657
1.47274
1.47899
1.4855
1.49257
1.50105
1.50996
1.06413
1.13799
1.2148
1.28334
1.33631
1.37023
1.40498
1.43098
1.46246
1.50599
1.54341
1.58263
1.60594
1.59579
1.58326
1.57104
1.56599
1.57268
1.58019
1.58078
1.55258
1.51592
1.47493
1.43075
1.38484
1.33661
1.28381
1.22804
1.15535
1.08951
1.02725
1.05563
1.13344
1.24126
1.34172
1.4394
1.52058
1.5817
1.63291
1.68449
1.69904
1.70331
1.70292
1.69576
1.68588
1.66776
1.6361
1.59092
1.53122
1.44589
1.36161
1.27667
1.24819
1.25437
1.25299
1.2497
1.24232
1.2336
1.23329
1.23518
1.23788
1.24119
1.24519
1.24985
1.25513
1.26079
1.26682
1.27312
1.27957
1.28628
1.29346
1.30109
1.30907
1.31726
1.32552
1.33377
1.34195
1.34995
1.35797
1.36612
1.37441
1.38283
1.3914
1.39988
1.40817
1.41614
1.42362
1.43089
1.43812
1.4455
1.45295
1.46003
1.46701
1.47334
1.47952
1.48576
1.49228
1.49941
1.50809
1.51722
1.06561
1.13022
1.19863
1.26454
1.31177
1.35521
1.39178
1.42309
1.45747
1.49725
1.54461
1.58447
1.62392
1.64293
1.64224
1.64616
1.64831
1.65414
1.66593
1.67838
1.68873
1.6701
1.64639
1.61861
1.58883
1.55752
1.52049
1.4789
1.40509
1.29092
1.22235
1.1916
1.24457
1.31648
1.39926
1.47371
1.54454
1.60391
1.64497
1.66928
1.69483
1.72118
1.72874
1.72965
1.72988
1.72443
1.71016
1.69079
1.65363
1.6002
1.52868
1.42469
1.34551
1.25725
1.2601
1.2651
1.2674
1.26546
1.2608
1.25837
1.25641
1.25819
1.26211
1.26634
1.2708
1.2752
1.27993
1.28537
1.29195
1.29935
1.30668
1.31452
1.32183
1.32913
1.33683
1.34459
1.35232
1.3601
1.36807
1.37625
1.38451
1.39286
1.40097
1.40906
1.41719
1.42513
1.43262
1.43979
1.44685
1.45403
1.46114
1.46812
1.47476
1.48085
1.48684
1.493
1.49952
1.50679
1.51578
1.52526
1.07386
1.13032
1.19041
1.24974
1.29616
1.34071
1.3731
1.40877
1.44561
1.48545
1.53013
1.57519
1.61379
1.65095
1.661
1.67044
1.68077
1.6908
1.70473
1.71927
1.73485
1.74982
1.73905
1.7247
1.70766
1.68355
1.65614
1.6008
1.51092
1.36582
1.21761
1.24317
1.28352
1.33461
1.39817
1.45779
1.51663
1.56344
1.59811
1.63052
1.65959
1.68303
1.70321
1.72406
1.74662
1.74897
1.7426
1.74158
1.7253
1.70688
1.66803
1.60813
1.52299
1.41251
1.31728
1.2626
1.27651
1.28853
1.28695
1.28366
1.27984
1.27721
1.27884
1.2817
1.28551
1.28985
1.29512
1.30124
1.3079
1.31522
1.32157
1.32794
1.3343
1.34095
1.34818
1.35539
1.36284
1.37054
1.37833
1.38618
1.39418
1.40233
1.41064
1.41908
1.42733
1.43535
1.44291
1.45005
1.45694
1.46381
1.47056
1.47727
1.48354
1.48946
1.4954
1.50152
1.50804
1.51534
1.52445
1.53415
1.08798
1.13638
1.18874
1.23992
1.28951
1.32581
1.36219
1.39531
1.42918
1.46715
1.50777
1.55423
1.5951
1.63539
1.66195
1.67514
1.68866
1.70104
1.71669
1.73648
1.75368
1.77301
1.78719
1.77892
1.76703
1.74904
1.7154
1.64113
1.51723
1.36514
1.22275
1.24369
1.27782
1.32801
1.37814
1.43261
1.4754
1.51741
1.55588
1.58891
1.61556
1.64336
1.67012
1.69644
1.71641
1.73344
1.74814
1.76206
1.76217
1.76405
1.75225
1.72454
1.67714
1.60529
1.49004
1.39962
1.29152
1.29447
1.30322
1.3097
1.30666
1.30414
1.30323
1.3056
1.30856
1.31254
1.31732
1.32244
1.3273
1.33261
1.33847
1.34447
1.35075
1.35723
1.36402
1.37123
1.37865
1.38631
1.39387
1.40155
1.40939
1.41738
1.42544
1.43356
1.44147
1.44901
1.456
1.46257
1.46897
1.47525
1.48146
1.48765
1.49355
1.49931
1.50514
1.51116
1.51761
1.52492
1.53407
1.544
1.10567
1.14892
1.19456
1.24059
1.28607
1.32151
1.35779
1.38554
1.41534
1.44981
1.48769
1.53097
1.57555
1.61092
1.64814
1.66649
1.68299
1.70066
1.71804
1.73371
1.7545
1.77279
1.79362
1.80632
1.7953
1.77065
1.71225
1.60267
1.42362
1.25863
1.21179
1.23429
1.26671
1.30367
1.34394
1.38658
1.42914
1.46897
1.50455
1.53677
1.56778
1.59807
1.62754
1.65191
1.67419
1.69992
1.72731
1.7508
1.77511
1.79372
1.78819
1.7826
1.76652
1.73366
1.67906
1.5977
1.47905
1.39099
1.30106
1.31185
1.32627
1.33809
1.3387
1.33713
1.33571
1.33886
1.34224
1.34707
1.35198
1.35598
1.3602
1.36507
1.37075
1.37735
1.38421
1.39143
1.39888
1.40652
1.41439
1.42232
1.43023
1.43777
1.44488
1.45204
1.45928
1.46624
1.47283
1.47879
1.48458
1.4903
1.496
1.50171
1.50735
1.51302
1.51881
1.52484
1.53137
1.53879
1.54815
1.55831
1.12821
1.16501
1.20563
1.24541
1.2865
1.32048
1.35512
1.38117
1.40929
1.43963
1.47229
1.50889
1.55251
1.58977
1.61961
1.64981
1.67217
1.69014
1.70715
1.72587
1.74542
1.76583
1.78297
1.80225
1.78826
1.7459
1.65225
1.473
1.34138
1.19411
1.20637
1.22433
1.24877
1.27824
1.31221
1.35042
1.38782
1.42538
1.46116
1.4947
1.52808
1.55995
1.58874
1.61445
1.6427
1.67128
1.70068
1.72628
1.75019
1.77047
1.79246
1.80717
1.80425
1.80282
1.78928
1.7469
1.68327
1.59072
1.47162
1.36062
1.33668
1.35458
1.37081
1.37291
1.37094
1.37041
1.37184
1.37387
1.37886
1.38339
1.38711
1.39109
1.39563
1.40106
1.4079
1.41525
1.423
1.43024
1.43729
1.44408
1.45097
1.45791
1.46461
1.47129
1.47802
1.48454
1.49085
1.49655
1.502
1.5074
1.5128
1.51824
1.52374
1.52936
1.53514
1.54118
1.54772
1.55517
1.56462
1.57489
1.15204
1.18353
1.22031
1.25592
1.29315
1.32494
1.3543
1.38303
1.40756
1.43365
1.46264
1.49507
1.53042
1.57115
1.60194
1.6306
1.65635
1.67674
1.69842
1.71759
1.73541
1.7561
1.77815
1.7712
1.74533
1.67333
1.53036
1.36754
1.21568
1.19259
1.20111
1.21477
1.23399
1.25841
1.28698
1.31907
1.35307
1.38847
1.42379
1.45855
1.49249
1.52616
1.55555
1.58612
1.61638
1.64959
1.67179
1.69561
1.72058
1.74792
1.77497
1.79649
1.81689
1.83665
1.84155
1.82838
1.81075
1.76266
1.68703
1.5629
1.47195
1.36913
1.37886
1.39526
1.40929
1.41081
1.40881
1.40862
1.41074
1.41375
1.41766
1.42209
1.42576
1.43021
1.43576
1.44256
1.4501
1.45807
1.4652
1.47107
1.4768
1.48257
1.48843
1.49469
1.50104
1.50714
1.51297
1.51817
1.52306
1.52782
1.5326
1.53751
1.5426
1.54793
1.55357
1.55958
1.56618
1.57377
1.58346
1.59398
1.17876
1.20466
1.23731
1.27
1.3039
1.33197
1.35855
1.38594
1.40745
1.43097
1.45701
1.4863
1.51953
1.55656
1.58571
1.61241
1.63805
1.66746
1.68798
1.70458
1.72562
1.74077
1.75211
1.73182
1.67214
1.55993
1.39132
1.24417
1.19171
1.19479
1.20078
1.21111
1.22611
1.24568
1.26959
1.29729
1.32827
1.36135
1.39545
1.43053
1.46525
1.49773
1.5302
1.56242
1.59719
1.62115
1.64672
1.67314
1.70224
1.73104
1.7567
1.784
1.81125
1.83679
1.86122
1.86724
1.87016
1.86288
1.83066
1.77147
1.68439
1.56288
1.45688
1.40165
1.41716
1.4326
1.45194
1.44943
1.44766
1.4477
1.44876
1.45085
1.456
1.46182
1.46757
1.47349
1.47995
1.48688
1.49369
1.50041
1.50545
1.51015
1.51508
1.5203
1.52598
1.53147
1.53702
1.54194
1.54656
1.55112
1.55576
1.56053
1.56547
1.57066
1.57615
1.58206
1.58861
1.59619
1.606
1.61663
1.20411
1.22563
1.25461
1.28598
1.31716
1.34332
1.3662
1.391
1.41175
1.43196
1.45462
1.48062
1.51217
1.54567
1.57716
1.6037
1.62824
1.65806
1.6773
1.69905
1.71961
1.72068
1.70648
1.6584
1.55936
1.3965
1.25594
1.19496
1.19736
1.20095
1.20633
1.21437
1.22593
1.24176
1.26217
1.28676
1.31466
1.3449
1.37701
1.41071
1.44483
1.47755
1.51109
1.54561
1.57235
1.60072
1.63056
1.66035
1.68973
1.71826
1.74566
1.77377
1.80123
1.829
1.8553
1.87818
1.90573
1.90547
1.90252
1.88572
1.84381
1.77536
1.65974
1.56072
1.44506
1.45016
1.46244
1.47563
1.49155
1.48741
1.48482
1.48558
1.48662
1.49142
1.49855
1.50518
1.51088
1.51684
1.52199
1.52748
1.53326
1.53758
1.54152
1.54572
1.55025
1.55532
1.56048
1.56557
1.5707
1.57558
1.58046
1.58537
1.59035
1.59552
1.60097
1.60686
1.61343
1.62109
1.63111
1.64199
1.23123
1.2489
1.27336
1.30278
1.33062
1.35799
1.37687
1.39845
1.42031
1.43621
1.45536
1.47816
1.50649
1.53731
1.57005
1.59771
1.62177
1.64887
1.67336
1.69914
1.7038
1.68862
1.64458
1.55284
1.39442
1.25376
1.18552
1.19557
1.20239
1.20978
1.21601
1.22343
1.23328
1.24642
1.26374
1.2845
1.30935
1.33711
1.36801
1.39967
1.43153
1.46544
1.49994
1.52749
1.55708
1.58958
1.62109
1.65182
1.68114
1.70879
1.73723
1.76573
1.79324
1.82055
1.84594
1.87316
1.89987
1.92202
1.93786
1.94312
1.93182
1.90555
1.85388
1.77468
1.65366
1.56657
1.47528
1.48719
1.50703
1.51987
1.52736
1.52364
1.52233
1.52361
1.52751
1.53452
1.54075
1.54771
1.55128
1.5552
1.55936
1.56293
1.5664
1.57021
1.57475
1.58023
1.58563
1.59133
1.5969
1.60196
1.60686
1.61177
1.61658
1.6216
1.62692
1.63272
1.63924
1.64692
1.65719
1.66837
1.2511
1.26718
1.28832
1.31718
1.34337
1.37487
1.39081
1.41042
1.4333
1.44593
1.46097
1.48019
1.50481
1.53239
1.56255
1.59213
1.61817
1.64608
1.67096
1.69019
1.67532
1.63569
1.55039
1.39466
1.26324
1.17082
1.18377
1.1962
1.20937
1.21918
1.2274
1.23615
1.24613
1.25818
1.27303
1.29148
1.31339
1.33849
1.36603
1.39523
1.42721
1.45956
1.48823
1.51862
1.55072
1.58274
1.61561
1.64444
1.67412
1.70429
1.73212
1.75988
1.78826
1.81527
1.8431
1.86962
1.89773
1.92527
1.94769
1.97094
1.97013
1.97049
1.95233
1.9167
1.86036
1.77638
1.65925
1.55115
1.52082
1.5272
1.541
1.55497
1.55965
1.56035
1.56172
1.56459
1.56966
1.57635
1.58216
1.58674
1.5889
1.59085
1.5933
1.59633
1.60051
1.60608
1.61145
1.61732
1.62217
1.62666
1.63117
1.63578
1.64059
1.64577
1.65142
1.65769
1.66474
1.67299
1.68379
1.6956
1.27951
1.29209
1.30859
1.33273
1.35861
1.38803
1.40659
1.42556
1.44801
1.46129
1.47294
1.48869
1.50978
1.5344
1.56122
1.58534
1.61616
1.64223
1.66921
1.65851
1.62594
1.54885
1.39407
1.27556
1.15818
1.17086
1.18459
1.19992
1.21581
1.22952
1.24059
1.25117
1.26209
1.27393
1.28734
1.30312
1.32146
1.34292
1.36728
1.39456
1.42333
1.45325
1.48459
1.51743
1.54964
1.58249
1.61134
1.64104
1.67123
1.7006
1.72952
1.75699
1.78512
1.8127
1.83924
1.86426
1.89074
1.91615
1.93924
1.96156
1.9789
1.9958
1.99647
1.99654
1.97898
1.93223
1.86636
1.75263
1.65556
1.55252
1.55887
1.5677
1.57927
1.59385
1.59448
1.59599
1.59656
1.60219
1.60741
1.61264
1.61591
1.61762
1.61941
1.62165
1.62543
1.63123
1.63698
1.64261
1.64704
1.65103
1.65514
1.65952
1.6643
1.66962
1.67567
1.68247
1.69018
1.69914
1.71078
1.72351
1.31942
1.30633
1.32299
1.34526
1.372
1.39656
1.42461
1.44222
1.46468
1.47834
1.48942
1.50309
1.52131
1.54257
1.56906
1.5869
1.61383
1.63397
1.64503
1.61622
1.54525
1.40105
1.27378
1.14964
1.15924
1.17205
1.18715
1.2044
1.22185
1.23873
1.25349
1.266
1.27826
1.29089
1.30442
1.31943
1.33657
1.35609
1.37838
1.4029
1.43012
1.45933
1.48993
1.52071
1.55167
1.58311
1.61423
1.64364
1.67342
1.70206
1.7308
1.75735
1.78428
1.81164
1.8394
1.86611
1.89215
1.91347
1.93467
1.95614
1.97674
1.99633
2.01412
2.03034
2.02808
2.01904
1.99887
1.95013
1.87008
1.74788
1.65014
1.57758
1.58033
1.60092
1.61368
1.62751
1.62852
1.62945
1.63245
1.63571
1.63904
1.64125
1.64291
1.64486
1.64779
1.65279
1.65851
1.66408
1.66915
1.67341
1.67782
1.68249
1.6876
1.69311
1.69931
1.70625
1.71412
1.72327
1.73524
1.74841
1.38308
1.34331
1.34417
1.3616
1.38488
1.40804
1.43617
1.45528
1.47614
1.50074
1.50843
1.51882
1.5343
1.55282
1.5784
1.59559
1.61172
1.61913
1.59783
1.53831
1.41175
1.2752
1.1449
1.15146
1.16193
1.17682
1.19394
1.21205
1.23072
1.24963
1.26811
1.2857
1.30073
1.31539
1.3303
1.34586
1.36246
1.38061
1.40059
1.42268
1.44673
1.47276
1.50036
1.52919
1.55929
1.58916
1.61866
1.64734
1.67571
1.70308
1.73049
1.75708
1.78361
1.81078
1.83895
1.86606
1.89082
1.91129
1.93077
1.95063
1.97094
1.99134
2.0153
2.03829
2.05166
2.06342
2.0617
2.05577
2.02462
1.95831
1.83933
1.7341
1.61371
1.61593
1.62509
1.63966
1.65581
1.66311
1.6633
1.66336
1.66368
1.66425
1.66454
1.66605
1.66985
1.67511
1.68068
1.6865
1.69203
1.69662
1.70124
1.70593
1.71115
1.71663
1.72278
1.72976
1.73768
1.74685
1.75906
1.77251
1.49184
1.39031
1.37011
1.38349
1.40076
1.42207
1.44299
1.46803
1.48933
1.51364
1.53136
1.53672
1.54752
1.56646
1.58696
1.60704
1.60828
1.5859
1.52913
1.42271
1.27656
1.14364
1.14827
1.15719
1.17166
1.18907
1.20747
1.22708
1.24759
1.26873
1.2899
1.30978
1.32717
1.34321
1.35885
1.3744
1.39036
1.407
1.42491
1.44438
1.46565
1.48861
1.51324
1.53918
1.56619
1.59397
1.62183
1.6497
1.67678
1.70371
1.73003
1.75574
1.78128
1.80819
1.83525
1.8623
1.88448
1.90706
1.92868
1.95021
1.96802
1.98682
2.00602
2.02682
2.04997
2.0743
2.09446
2.10559
2.10369
2.07754
2.02022
1.93837
1.8113
1.71801
1.633
1.6409
1.66188
1.67482
1.68998
1.69001
1.68924
1.68842
1.68793
1.68811
1.69029
1.69695
1.70284
1.70977
1.71544
1.72037
1.72512
1.72974
1.73504
1.74072
1.74673
1.75363
1.76156
1.77067
1.783
1.79641
1.83044
1.44062
1.41279
1.39721
1.41198
1.43357
1.45413
1.47979
1.4993
1.51958
1.54409
1.55148
1.56132
1.57837
1.59361
1.6094
1.58274
1.52536
1.42121
1.27807
1.14273
1.1468
1.15596
1.17148
1.18888
1.20746
1.22657
1.24646
1.2673
1.28852
1.31001
1.33105
1.35099
1.36887
1.38546
1.40118
1.41673
1.43271
1.44932
1.46692
1.48571
1.50597
1.52754
1.55066
1.57492
1.60046
1.62656
1.653
1.67944
1.70583
1.73138
1.75728
1.78339
1.81022
1.83611
1.86077