/*--------------------------------*- C++ -*----------------------------------*\
| =========                 |                                                 |
| \\      /  F ield         | OpenFOAM: The Open Source CFD Toolbox           |
|  \\    /   O peration     | Version:  v2106                                 |
|   \\  /    A nd           | Website:  www.openfoam.com                      |
|    \\/     M anipulation  |                                                 |
\*---------------------------------------------------------------------------*/
FoamFile
{
    version     2.0;
    format      ascii;
    arch        "LSB;label=32;scalar=64";
    class       volScalarField;
    location    "20";
    object      p;
}
// * * * * * * * * * * * * * * * * * * * * * * * * * * * * * * * * * * * * * //

dimensions      [1 -1 -2 0 0 0 0];

internalField   nonuniform List<scalar> 
5250
(
1
1
1
1
1
1
1
1
1.00002
1.00009
1.00127
1.00923
1.09935
1.67482
4.0755
10.6161
11.6807
11.0448
11.4115
11.6254
11.6955
11.8337
11.9129
11.9722
11.9998
1
1
1
1
1
1
1
1
1.00002
1.00009
1.00128
1.00884
1.09815
1.65898
4.00995
10.503
11.7266
11.0074
11.3947
11.6027
11.6755
11.8136
11.8973
11.9571
11.9875
1
1
1
1
1
1
1
1
1.00001
1.0001
1.00111
1.00851
1.09021
1.61927
3.86901
10.2382
11.8216
10.9357
11.3427
11.5417
11.6274
11.7597
11.835
11.898
11.9263
1
1
1
1
1
1
1
1
1.00001
1.0001
1.00095
1.00836
1.07555
1.55496
3.641
9.81069
11.9551
10.8488
11.302
11.5048
11.5618
11.6827
11.758
11.8151
11.8461
1
1
1
1
1
1
1
1
1.00001
1.00009
1.00079
1.00703
1.0621
1.47832
3.33457
9.19676
12.1571
10.7186
11.2088
11.3912
11.4462
11.5654
11.6408
11.7031
11.7275
1
1
1
1
1
1
1
1
1.00001
1.00007
1.00058
1.00543
1.04544
1.38066
2.92309
8.35695
12.3975
10.603
11.0888
11.2928
11.3471
11.4586
11.5154
11.5478
11.5667
1
1
1
1
1
1
1
1
1.00001
1.00005
1.00044
1.00403
1.03387
1.30553
2.61692
7.41437
12.5
10.4998
10.9681
11.1697
11.2021
11.2709
11.3106
11.3415
11.3412
1
1
1
1
1
1
1
1
1
1.00004
1.00028
1.00296
1.02451
1.23919
2.32252
6.5266
12.389
10.5112
10.8162
11.0321
11.056
11.1129
11.1065
11.0724
10.9909
1
1
1
1
1
1
1
1
1
1.00003
1.0002
1.00246
1.01848
1.18927
2.09872
5.71711
11.7349
10.5501
10.6823
10.8292
10.8665
10.797
10.748
10.6442
10.4463
1
1
1
1
1
1
1
1
1
1.00003
1.00014
1.00186
1.01343
1.14311
1.88234
4.92652
10.8496
10.5209
10.5043
10.6076
10.6412
10.5409
10.2968
10.3319
9.4393
1
1
1
1
1
1
1
1
1
1.00002
1.0001
1.00138
1.0096
1.10528
1.68767
4.15167
9.81557
10.6041
10.3646
10.2849
10.2484
10.1847
9.68752
9.31378
6.89657
1
1
1
1
1
1
1
1
1
1.00001
1.00011
1.00092
1.00829
1.07081
1.51231
3.46252
8.62187
10.6476
10.0849
9.98515
9.88453
9.72738
9.08705
8.46343
6.55206
1
1
1
1
1
1
1
1
1
1.00001
1.00006
1.00051
1.00489
1.03804
1.34093
2.75636
7.30641
10.6854
9.74262
9.66935
9.59203
9.3536
8.76892
7.99326
6.66957
1
1
1
1
1
1
1
1
1
1
1.00003
1.0003
1.00247
1.023
1.22652
2.26897
6.02434
10.533
9.61151
9.44691
9.37382
9.07204
8.5076
7.76898
6.64684
1
1
1
1
1
1
1
1
1
1
1.00003
1.00013
1.00193
1.01395
1.15528
1.90685
4.92283
9.60396
9.59575
9.32026
9.12631
8.78215
8.25262
7.59609
6.6382
1
1
1
1
1
1
1
1
1
1
1.00002
1.00009
1.00118
1.00827
1.08989
1.60651
3.86289
8.23032
9.53686
9.11854
8.83488
8.49401
8.04389
7.48091
6.64083
1
1
1
1
1
1
1
1
1
1
1
1.00009
1.00039
1.00542
1.04017
1.37352
2.92098
6.78592
9.40739
8.9065
8.60818
8.30737
7.88316
7.37403
6.6465
1
1
1
1
1
1
1
1
1
1
1
1.00005
1.00023
1.0032
1.02173
1.22519
2.19329
5.34126
8.95318
8.82026
8.51385
8.19384
7.78058
7.27549
6.63353
1
1
1
1
1
1
1
1
1
1
1
1.00002
1.00017
1.00159
1.0131
1.11594
1.74883
4.16504
7.94261
8.81644
8.44703
8.05528
7.64432
7.17885
6.60674
1
1
1
1
1
1
1
1
1
1
1
0.999997
1.00012
1.00027
1.00751
1.0382
1.47137
3.0797
6.47224
8.62396
8.23883
7.89649
7.52851
7.11212
6.59754
1
1
1
1
1
1
1
1
1
1
1
1
1.00004
1.00034
1.00293
1.02434
1.19578
2.13949
4.93614
8.00716
8.14438
7.83922
7.47181
7.07133
6.59968
1
1
1
1
1
1
1
1
1
1
1
1
1.00004
1.00026
1.00004
1.01509
1.04999
1.76205
3.69453
6.8336
8.15781
7.81159
7.44843
7.05868
6.613
1
1
1
1
1
1
1
1
1
1
1
1
1.00001
1.00007
1.00052
1.00462
1.03575
1.28133
2.51909
5.35063
7.77446
7.65432
7.38104
7.03077
6.61171
1
1
1
1
1
1
1
1
1
1
1
1
1
1.00005
1.00038
1.00091
1.01784
1.02707
1.85194
4.04136
6.90838
7.71568
7.39909
7.04422
6.63407
1
1
1
1
1
1
1
1
1
1
1
1
1
1.00001
1.0001
1.00074
1.00632
1.04795
1.37137
2.82697
5.53392
7.4917
7.30281
7.00585
6.63754
1
1
1
1
1
1
1
1
1
1
1
1
1
1
1.00007
1.00039
1.00018
1.01907
1.05117
1.96552
4.16001
6.7053
7.33178
7.02628
6.66889
1
1
1
1
1
1
1
1
1
1
1
1
1
1
1.00001
1.00012
1.00084
1.00725
1.05329
1.4095
2.88681
5.37055
7.09452
6.93701
6.65169
1
1
1
1
1
1
1
1
1
1
1
1
1
1
1
1.00007
1.00035
0.999798
1.01996
1.04016
1.92603
4.01026
6.33143
6.96789
6.68223
1
1
1
1
1
1
1
1
1
1
1
1
1
1
1
1.00002
1.00013
1.00082
1.00721
1.04865
1.40325
2.781
5.07189
6.73527
6.62681
1
1
1
1
1
1
1
1
1
1
1
1
1
1
1
1
1.00004
1.00019
0.999393
1.01512
1.04709
1.83271
3.73607
5.93587
6.67428
1
1
1
1
1
1
1
1
1
1
1
1
1
1
1
1
0.999997
1.00009
1.00054
1.00599
1.03988
1.34729
2.55603
4.67321
6.33496
1
1
1
1
1
1
1
1
1
1
1
1
1
1
1
1
1
1.00001
1.0002
1.00087
1.01376
1.0633
1.72263
3.3332
5.42826
1
1
1
1
1
1
1
1
1
1
1
1
1
1
1
1
1
1.00001
1.00008
1.00049
1.00488
1.03303
1.28936
2.42992
4.18889
1
1
1
1
1
1
1
1
1
1
1
1
1
1
1
1
1
1
1.00003
1.00017
0.999733
1.00885
1.04099
1.51162
2.80122
1
1
1
1
1
1
1
1
1
1
1
1
1
1
1
1
1
1
1.00001
1.00005
1.00035
1.00201
1.0203
1.04887
1.85791
1
1
1
1
1
1
1
1
1
1
1
1
1
1
1
1
1
1
1
1.00002
1.00003
1.00072
1.00482
1.03455
1.33476
1
1
1
1
1
1
1
1
1
1
1
1
1
1
1
1
1
1
1
1
1.00001
1.0002
1.00077
1.01072
1.04683
1
1
1
1
1
1
1
1
1
1
1
1
1
1
1
1
1
1
1
1
1.00001
1.00006
1.00039
1.00312
1.01889
1
1
1
1
1
1
1
1
1
1
1
1
1
1
1
1
1
1
1
1
1
1.00002
1.0001
1.00049
1.00551
1
1
1
1
1
1
1
1
1
1
1
1
1
1
1
1
1
1
1
1
1
1
1.00003
1.00017
1.00074
1
1
1
1
1
1
1
1
1
1
1
1
1
1
1
1
1
1
1
1
1
1
1.00001
1.00005
1.00036
1
1
1
1
1
1
1
1
1
1
1
1
1
1
1
1
1
1
1
1
1
1
1
1
1.0001
1
1
1
1
1
1
1
1
1
1
1
1
1
1
1
1
1
1
1
1
1
1
1
1
1.00002
1
1
1
1
1
1
1
1
1
1
1
1
1
1
1
1
1
1
1
1
1
1
1
1
0.999999
1
1
1
1
1
1
1
1
1
1
1
1
1
1
1
1
1
1
1
1
1
1
1
1
0.999999
1
1
1
1
1
1
1
1
1
1
1
1
1
1
1
1
1
1
1
1
1
1
1
1
1
1
1
1
1
1
1
1
1
1
1
1
1
1
1
1
1
1
1
1
1
1
1
1
1
1
1
1
1
1
1
1
1
1
1
1
1
1
1
1
1
1
1
1
1
1
1
1
1
1
1
1
1
1
1
1
1
1
1
1
1
1
1
1
1
1
1
1
1
1
1
1
1
1
1
1
1
1
1
1
1
1
1
1
1
1
1
1
1
1
1
1
1
1
1
1
1
1
1
1
1
2.74041
3.07655
3.88154
3.29808
3.53238
3.54438
3.35107
2.89571
2.54609
2.42996
2.43599
2.45767
2.4647
2.45118
2.35243
2.17332
2.05305
2.00862
2.00396
2.02009
2.03712
2.04321
2.0442
2.04096
2.03703
2.03017
2.02021
2.00804
2.00002
1.99604
1.99526
2.00955
2.04482
2.10148
2.20064
2.33558
2.48612
2.6628
2.88942
3.0828
3.26863
3.47631
3.69028
3.88754
4.09993
4.26851
4.38005
4.52166
4.63597
4.70111
4.78387
4.84189
4.86292
4.88464
4.88987
4.88567
4.87303
4.85004
4.8218
4.7882
4.74979
4.70733
4.66187
4.61375
4.56389
4.51222
4.45995
4.40794
4.35603
4.30422
4.25285
4.20185
4.15136
4.10116
4.05148
4.00207
3.95285
3.90384
3.85524
3.80736
3.76038
3.7141
3.66852
3.62341
3.57894
3.53519
3.49246
3.45081
3.41041
3.37116
3.33327
3.29691
3.2623
3.22908
3.19743
3.16572
3.13473
3.10234
3.07056
3.05223
4.1608
4.01248
3.58888
3.2742
3.64526
3.69111
3.56055
2.95214
2.44975
2.30837
2.35072
2.43571
2.4496
2.40082
2.28317
2.15444
2.06111
2.01811
2.01997
2.02716
2.04071
2.04734
2.04961
2.04573
2.04209
2.03406
2.02928
2.01689
2.00491
1.99674
1.99811
2.01281
2.04885
2.09761
2.184
2.30071
2.43971
2.61273
2.85312
3.08465
3.29623
3.49433
3.70259
3.89107
4.0838
4.23824
4.34057
4.48879
4.61356
4.68531
4.76707
4.82911
4.85442
4.8744
4.88234
4.87859
4.86606
4.84188
4.8138
4.78125
4.74356
4.70101
4.6555
4.60764
4.55783
4.50663
4.45508
4.4039
4.35247
4.30099
4.24995
4.19946
4.14945
4.09971
4.05025
4.00083
3.95145
3.90208
3.85329
3.80535
3.75837
3.7122
3.66669
3.6216
3.57717
3.53349
3.49086
3.44939
3.40901
3.36981
3.33194
3.29556
3.26102
3.22811
3.19662
3.16547
3.13426
3.1016
3.06803
3.04876
4.9622
4.31054
3.94196
3.59239
3.61224
3.56989
3.21203
2.65191
2.40109
2.37469
2.43476
2.47573
2.47848
2.46374
2.40841
2.24334
2.04599
1.97685
1.97103
1.99961
2.03281
2.04547
2.04645
2.04269
2.03477
2.0256
2.01688
2.00629
1.99864
1.99923
1.99697
2.00664
2.03531
2.08674
2.17984
2.32164
2.48424
2.6136
2.8401
3.03365
3.20196
3.40741
3.63293
3.83839
4.05553
4.224
4.34084
4.45822
4.56662
4.65527
4.72684
4.7858
4.81868
4.84151
4.84643
4.84413
4.83832
4.81907
4.79282
4.76148
4.72541
4.68467
4.64066
4.59442
4.54638
4.49619
4.44543
4.395
4.34469
4.29451
4.24463
4.19486
4.1453
4.09589
4.04659
3.9974
3.9482
3.89897
3.85
3.80178
3.75468
3.70853
3.66317
3.61838
3.57415
3.53067
3.4884
3.44728
3.40714
3.36798
3.33016
3.2939
3.25952
3.22697
3.19564
3.16506
3.13398
3.10107
3.06587
3.04495
5.36848
4.49264
4.0228
3.6701
3.56344
3.53732
3.27593
2.86878
2.57537
2.42368
2.39485
2.44185
2.45145
2.40249
2.25651
2.08931
2.0183
1.99697
2.00946
2.03547
2.04728
2.04938
2.05441
2.04824
2.04718
2.03473
2.03342
2.02044
2.01146
1.99672
1.98904
2.00471
2.03605
2.07362
2.14986
2.2508
2.38294
2.54982
2.76874
3.00939
3.1907
3.37346
3.58227
3.77474
3.93647
4.10643
4.24294
4.36523
4.4934
4.61453
4.66563
4.72345
4.76383
4.79662
4.81501
4.81796
4.80954
4.79143
4.7671
4.7403
4.70717
4.66663
4.62172
4.575
4.52773
4.48025
4.43248
4.38442
4.33553
4.28586
4.23658
4.18819
4.14011
4.0919
4.04317
3.99392
3.94409
3.89423
3.84494
3.79667
3.74965
3.70376
3.65848
3.6138
3.56981
3.52679
3.48508
3.44458
3.40476
3.36576
3.32798
3.29175
3.25758
3.22547
3.19458
3.16444
3.13378
3.10086
3.06442
3.04173
5.537
4.74353
4.15366
3.79445
3.66218
3.55916
3.34861
2.91347
2.53801
2.40118
2.39821
2.45457
2.45727
2.41083
2.3338
2.20106
2.09151
2.02122
1.99505
2.00946
2.03374
2.04412
2.04613
2.0418
2.03438
2.02458
2.01523
2.00692
1.99113
1.9959
1.9929
2.00159
2.01874
2.06561
2.13993
2.24495
2.35811
2.48525
2.62601
2.83714
3.0014
3.22722
3.4671
3.68384
3.85922
4.03767
4.15184
4.23893
4.37581
4.50479
4.58292
4.65786
4.70898
4.73187
4.74954
4.74817
4.75306
4.75089
4.73036
4.70167
4.66829
4.63242
4.59397
4.5528
4.50854
4.46147
4.41389
4.36701
4.32048
4.27391
4.22691
4.17948
4.13175
4.08386
4.03546
3.98646
3.93716
3.88775
3.83865
3.79028
3.74323
3.69755
3.65277
3.60877
3.56547
3.52318
3.48204
3.44204
3.40261
3.36379
3.32598
3.28982
3.25601
3.22443
3.1939
3.16395
3.13356
3.10063
3.06325
3.03898
5.69225
4.93122
4.37151
3.9734
3.77799
3.64825
3.48667
3.08829
2.70406
2.49624
2.45788
2.46475
2.46583
2.41729
2.30873
2.15322
2.05737
2.01171
2.00333
2.02321
2.04566
2.04793
2.05394
2.04684
2.04515
2.03197
2.02957
2.0182
2.01021
2.00001
1.99628
2.0164
2.03677
2.06239
2.1155
2.17769
2.22325
2.30439
2.40487
2.53834
2.69411
2.91651
3.1478
3.38531
3.65044
3.87393
4.04921
4.17345
4.27204
4.34575
4.43862
4.54827
4.63004
4.66941
4.69217
4.69091
4.69998
4.69632
4.68619
4.67017
4.64217
4.60679
4.56537
4.52462
4.48355
4.44159
4.39783
4.35309
4.30742
4.26144
4.21551
4.16947
4.12289
4.07554
4.02709
3.97786
3.92841
3.87932
3.83105
3.78373
3.73745
3.69227
3.64788
3.60416
3.56116
3.51939
3.47894
3.43952
3.40056
3.36208
3.32434
3.28836
3.25499
3.22389
3.19371
3.16375
3.13331
3.10033
3.06245
3.03724
5.81585
5.09554
4.53583
4.15168
3.88612
3.72678
3.55617
3.27452
2.95631
2.64706
2.48756
2.45505
2.44634
2.41845
2.35843
2.23315
2.12871
2.05527
2.02386
2.01889
2.03019
2.04004
2.04415
2.04228
2.03348
2.02757
2.01537
2.01806
2.00785
2.01354
2.03264
2.06826
2.08482
2.10893
2.13281
2.15103
2.17015
2.19659
2.24187
2.29634
2.40735
2.53863
2.68992
2.87552
3.1025
3.37088
3.71026
4.03143
4.22777
4.30649
4.3404
4.39093
4.47038
4.55245
4.61771
4.65016
4.64901
4.63211
4.62104
4.61368
4.59569
4.57061
4.53589
4.4992
4.46003
4.41993
4.37709
4.33362
4.29013
4.24648
4.20274
4.15834
4.11236
4.06447
4.01484
3.96503
3.91607
3.86827
3.82135
3.77523
3.72993
3.68544
3.64168
3.59852
3.55619
3.51516
3.4754
3.43662
3.39827
3.36023
3.3228
3.28714
3.25428
3.22356
3.19348
3.16341
3.13286
3.09972
3.06125
3.03515
5.89061
5.22897
4.68965
4.29234
4.02116
3.83572
3.64033
3.39592
3.12083
2.85023
2.62628
2.52154
2.48709
2.46259
2.41789
2.33298
2.19928
2.0717
2.00025
1.99082
2.008
2.04054
2.06314
2.06079
2.04925
2.03505
2.03003
2.03148
2.05563
2.01358
2.14728
2.26722
2.2846
2.28805
2.2738
2.22352
2.18765
2.16775
2.17037
2.19093
2.23346
2.29583
2.37647
2.48249
2.61726
2.81803
3.08936
3.40479
3.8162
4.19733
4.37368
4.36202
4.36477
4.4092
4.48662
4.56079
4.59016
4.60547
4.57829
4.55405
4.54002
4.53078
4.51001
4.47886
4.43679
4.39177
4.35107
4.31394
4.27588
4.23507
4.19097
4.14477
4.09801
4.0507
4.00248
3.9539
3.90609
3.85954
3.81376
3.76835
3.72332
3.67902
3.6355
3.59269
3.55086
3.51043
3.47141
3.43329
3.39563
3.35829
3.32147
3.28631
3.25386
3.22332
3.19327
3.16309
3.13232
3.09884
3.05974
3.03298
5.95248
5.34605
4.83001
4.42278
4.15533
3.93528
3.75937
3.53977
3.28764
3.02583
2.79522
2.62385
2.53672
2.49723
2.44696
2.39341
2.28238
2.15972
2.05949
2.01542
2.01705
2.02827
2.04906
2.05538
2.05148
2.04694
2.03775
2.05801
2.07089
2.18455
2.34783
2.58466
2.62914
2.60674
2.51316
2.39228
2.29047
2.24163
2.20357
2.18402
2.1834
2.19929
2.22919
2.26468
2.32676
2.43533
2.57354
2.77289
3.08453
3.47799
3.97286
4.31244
4.41767
4.3792
4.36824
4.41515
4.46793
4.51838
4.52906
4.51796
4.50055
4.48481
4.46396
4.4398
4.40997
4.37327
4.33359
4.29342
4.25477
4.21604
4.17496
4.1303
4.08316
4.03447
3.98616
3.93866
3.89239
3.84738
3.80319
3.75937
3.71571
3.67215
3.62881
3.58604
3.54449
3.50478
3.46669
3.42958
3.39306
3.35677
3.32086
3.28626
3.25402
3.22342
3.19312
3.16261
3.13144
3.09746
3.05761
3.03014
6.01759
5.45163
4.95807
4.56097
4.27989
4.03645
3.86187
3.65965
3.41782
3.17299
2.93539
2.73257
2.60428
2.52792
2.47962
2.42513
2.34018
2.24546
2.14804
2.06843
2.03118
2.02948
2.03384
2.05308
2.05633
2.06616
2.06675
2.10203
2.1876
2.52313
2.88506
3.06863
3.04727
2.97261
2.79562
2.61811
2.48135
2.39547
2.32927
2.27425
2.22713
2.19896
2.19796
2.19572
2.21662
2.25007
2.29059
2.39235
2.54699
2.78644
3.1442
3.61808
4.15859
4.42566
4.41944
4.37142
4.36095
4.37837
4.43171
4.45466
4.46338
4.44921
4.42704
4.39553
4.36687
4.3398
4.31001
4.27568
4.23916
4.1987
4.15561
4.11248
4.06807
4.0213
3.97383
3.92781
3.88317
3.83938
3.79565
3.7516
3.70749
3.66397
3.62118
3.57905
3.53802
3.49884
3.46162
3.42561
3.39009
3.35457
3.31932
3.28536
3.25336
3.22256
3.19204
3.16138
3.13001
3.09563
3.05483
3.0265
6.06457
5.5339
5.06089
4.67983
4.37506
4.13499
3.94815
3.75134
3.52834
3.30011
3.06716
2.85635
2.69223
2.58844
2.52888
2.47103
2.4032
2.33011
2.23493
2.14962
2.08109
2.04644
2.04065
2.04465
2.0582
2.06768
2.11391
2.18677
2.47459
3.00612
3.60558
3.6008
3.54061
3.36376
3.12973
2.92366
2.76179
2.63204
2.53592
2.45031
2.37414
2.30741
2.25634
2.21556
2.19164
2.18817
2.19071
2.22701
2.27325
2.37779
2.53773
2.82344
3.23883
3.79927
4.2816
4.45187
4.38345
4.31481
4.31362
4.34323
4.38426
4.39328
4.38453
4.36628
4.33594
4.3109
4.28525
4.25206
4.21385
4.1745
4.13231
4.08979
4.04718
4.00442
3.95995
3.91487
3.87095
3.82792
3.78515
3.74217
3.69887
3.65576
3.61334
3.57187
3.53157
3.49312
3.45679
3.42179
3.3873
3.35282
3.3185
3.28515
3.25322
3.22209
3.19121
3.16016
3.12827
3.09315
3.05118
3.02178
6.11336
5.61614
5.16077
4.77637
4.46432
4.22711
4.01627
3.83182
3.63939
3.4157
3.1942
2.97989
2.80041
2.66891
2.58411
2.52105
2.46928
2.39198
2.30891
2.2282
2.1469
2.08493
2.05306
2.04886
2.05685
2.08758
2.16685
2.36086
2.85891
3.63483
4.13566
4.12251
3.99319
3.72534
3.46713
3.25572
3.07982
2.92772
2.78816
2.67055
2.57138
2.48201
2.40225
2.32682
2.26267
2.22015
2.19289
2.17413
2.17765
2.19351
2.24513
2.36341
2.57407
2.9148
3.39011
4.01784
4.36895
4.40102
4.30756
4.26601
4.27049
4.3129
4.32302
4.32208
4.30428
4.28075
4.25041
4.22133
4.19081
4.15537
4.11318
4.06953
4.0284
3.98865
3.94785
3.90426
3.8596
3.81595
3.77357
3.7318
3.69004
3.64824
3.60659
3.56539
3.52544
3.48774
3.45235
3.41829
3.38468
3.35108
3.31752
3.28453
3.2524
3.22081
3.18947
3.15796
3.12557
3.08977
3.04671
3.01641
6.14107
5.67512
5.24506
4.86355
4.54933
4.3024
4.08794
3.91386
3.72478
3.51137
3.31072
3.09782
2.91017
2.76253
2.65151
2.57686
2.51314
2.44261
2.38389
2.29759
2.20966
2.1389
2.08266
2.05701
2.07833
2.13793
2.29783
2.72569
3.53999
4.35001
4.53201
4.43418
4.22642
3.98871
3.77188
3.56506
3.36868
3.19021
3.03749
2.90435
2.78557
2.67504
2.57358
2.48755
2.41016
2.33852
2.2681
2.20602
2.16252
2.13883
2.15181
2.18442
2.24764
2.38406
2.63891
3.04146
3.58102
4.16942
4.42567
4.36763
4.24807
4.2077
4.22192
4.24076
4.25664
4.2497
4.22525
4.18898
4.15291
4.12195
4.08845
4.05066
4.01044
3.96894
3.92729
3.8859
3.84424
3.80216
3.75954
3.71681
3.67532
3.63545
3.59635
3.55729
3.51865
3.48174
3.44723
3.41424
3.38163
3.34903
3.31637
3.28389
3.25178
3.21996
3.18824
3.15619
3.12309
3.08629
3.04194
3.01062
6.18541
5.73845
5.32587
4.95537
4.63633
4.37712
4.1637
3.98514
3.79662
3.61006
3.41818
3.21718
3.01828
2.86354
2.73723
2.63531
2.56109
2.50169
2.43506
2.35035
2.28034
2.20554
2.13469
2.10155
2.13528
2.26268
2.60506
3.34766
4.2613
4.76749
4.69766
4.57022
4.40362
4.22654
4.03311
3.82521
3.62492
3.44419
3.28033
3.12871
2.98948
2.86343
2.75619
2.66019
2.5699
2.47545
2.38928
2.31423
2.24436
2.19294
2.15291
2.14357
2.14489
2.17252
2.26683
2.42665
2.73615
3.19301
3.8218
4.2836
4.40817
4.27331
4.17707
4.16468
4.1946
4.19685
4.19554
4.16505
4.12587
4.08845
4.05854
4.02751
3.99301
3.95454
3.9117
3.86679
3.82407
3.78395
3.74436
3.70459
3.66449
3.62542
3.58763
3.55061
3.51408
3.47839
3.44431
3.41155
3.37919
3.34692
3.31454
3.28216
3.24975
3.21739
3.18494
3.15212
3.11823
3.08063
3.03528
3.00308
6.21695
5.78939
5.39072
5.02886
4.70849
4.45409
4.23997
4.04969
3.87792
3.70312
3.50922
3.32805
3.13513
2.95516
2.82511
2.71226
2.62267
2.54719
2.47535
2.41105
2.34542
2.24984
2.20008
2.19953
2.26767
2.53779
3.17681
4.11822
4.73458
4.82835
4.78124
4.69189
4.5648
4.41046
4.23296
4.04296
3.85314
3.66884
3.49596
3.338
3.18881
3.05664
2.93722
2.82637
2.71537
2.61692
2.53492
2.45312
2.37888
2.30815
2.24123
2.18863
2.14774
2.11676
2.13798
2.16517
2.28533
2.50188
2.85536
3.38404
4.03792
4.3467
4.31936
4.18605
4.10779
4.09168
4.11384
4.11152
4.10382
4.06707
4.02671
3.99189
3.96193
3.92996
3.89311
3.84947
3.80368
3.76068
3.72258
3.6861
3.64944
3.61326
3.57788
3.54265
3.50753
3.47339
3.44052
3.40829
3.37608
3.34386
3.31151
3.27921
3.24673
3.21414
3.18124
3.14779
3.11305
3.07435
3.02756
2.99407
6.26707
5.85585
5.46187
5.10778
4.78261
4.52576
4.31684
4.12458
3.95776
3.78525
3.60146
3.42321
3.244
3.0601
2.91368
2.79696
2.68333
2.59261
2.52537
2.46605
2.38231
2.31875
2.29359
2.34645
2.55074
3.09649
3.96417
4.66802
4.86423
4.85228
4.81422
4.74959
4.65445
4.53213
4.38772
4.2246
4.04879
3.87148
3.69842
3.53256
3.37657
3.23511
3.10578
2.97739
2.86378
2.76948
2.67684
2.58948
2.50506
2.41892
2.34406
2.27396
2.20661
2.15081
2.1107
2.09943
2.11531
2.16523
2.31918
2.59959
3.01531
3.60122
4.14523
4.34326
4.22742
4.0785
4.00973
4.02315
4.03347
4.02736
4.01174
3.97705
3.93634
3.89765
3.86079
3.82442
3.78582
3.74573
3.70481
3.66789
3.63502
3.60338
3.57202
3.54031
3.50663
3.47149
3.43739
3.40467
3.37219
3.33985
3.30739
3.27495
3.24214
3.20902
3.17538
3.14103
3.10519
3.06528
3.01721
2.9826
6.29449
5.91265
5.52956
5.18821
4.86389
4.59953
4.39303
4.19892
4.02721
3.86535
3.69939
3.51775
3.33544
3.16058
3.00165
2.8719
2.75164
2.65317
2.5724
2.49079
2.43196
2.41581
2.44259
2.60307
3.08979
3.91979
4.66625
4.89252
4.88018
4.86093
4.83434
4.79239
4.72435
4.62753
4.504
4.35726
4.19948
4.03775
3.87491
3.71092
3.55207
3.41045
3.26464
3.13387
3.0228
2.91437
2.81423
2.71198
2.61767
2.53199
2.45263
2.36975
2.29231
2.22193
2.15677
2.11327
2.07567
2.07325
2.11342
2.20377
2.38557
2.70805
3.18767
3.8409
4.19836
4.22727
4.09304
3.97672
3.92462
3.94475
3.95417
3.95393
3.92521
3.88123
3.83655
3.79736
3.76286
3.73065
3.69497
3.65777
3.62356
3.59303
3.56365
3.53401
3.50276
3.46906
3.43427
3.39996
3.36674
3.33416
3.30153
3.26904
3.23618
3.20288
3.16872
3.13355
3.09664
3.05566
3.00618
2.97015
6.35249
5.99056
5.61659
5.274
4.95123
4.67313
4.4693
4.27337
4.09398
3.93945
3.78619
3.61413
3.43039
3.25016
3.08557
2.94491
2.8282
2.71872
2.61016
2.54067
2.52037
2.5466
2.69187
3.11851
3.92382
4.73612
4.99921
4.95268
4.90175
4.87098
4.84841
4.81625
4.76568
4.68846
4.58806
4.46157
4.32479
4.17274
4.01442
3.8555
3.71084
3.55744
3.41117
3.29082
3.16932
3.0484
2.92831
2.82201
2.72763
2.64087
2.55137
2.46571
2.38631
2.31252
2.24758
2.18193
2.11851
2.07313
2.04505
2.06258
2.10661
2.22917
2.47655
2.84562
3.35444
3.9389
4.18594
4.1226
3.97172
3.88435
3.85366
3.87187
3.87969
3.86299
3.82496
3.77998
3.736
3.70128
3.67418
3.64398
3.61483
3.58735
3.55992
3.53096
3.49956
3.46527
3.42926
3.39366
3.35988
3.32708
3.29434
3.26184
3.22884
3.19514
3.16035
3.12427
3.08601
3.04327
2.99181
2.9543
6.37719
6.06266
5.71992
5.37777
5.06009
4.76047
4.54569
4.35069
4.15714
4.00265
3.85744
3.69893
3.5237
3.34359
3.1727
3.02316
2.89661
2.76629
2.66351
2.62345
2.64451
2.78006
3.17211
3.93936
4.81789
5.16091
5.08823
4.9996
4.93906
4.90173
4.86989
4.83377
4.78782
4.72692
4.6476
4.54884
4.42828
4.29007
4.13942
3.99043
3.83702
3.68323
3.55622
3.42296
3.28858
3.1576
3.03961
2.93501
2.83294
2.73316
2.64324
2.55873
2.47522
2.39768
2.3215
2.24889
2.17824
2.11136
2.0625
2.03765
2.02854
2.06825
2.13836
2.27312
2.55522
2.98143
3.52332
3.96649
4.09139
3.99253
3.87681
3.80834
3.79721
3.80396
3.795
3.76826
3.73052
3.68618
3.64966
3.62387
3.60225
3.57944
3.55504
3.52695
3.49396
3.45666
3.41845
3.38271
3.34941
3.31686
3.2845
3.25235
3.21963
3.18578
3.15014
3.11263
3.07284
3.0288
2.97581
2.93698
6.4109
6.11538
5.79438
5.46593
5.16056
4.85054
4.61175
4.41805
4.22613
4.06294
3.91754
3.76811
3.6024
3.42434
3.26035
3.11338
2.97211
2.81796
2.7595
2.7617
2.87222
3.22832
3.95855
4.92681
5.35882
5.27716
5.17226
5.07834
5.00187
4.94314
4.89527
4.84967
4.80254
4.74901
4.68265
4.60118
4.49987
4.38404
4.25402
4.1114
3.95829
3.8152
3.67273
3.5266
3.38829
3.26633
3.15518
3.04187
2.93144
2.83159
2.73987
2.65111
2.56305
2.48001
2.40433
2.33078
2.25979
2.19451
2.13609
2.08773
2.05022
2.02652
2.018
2.04907
2.15051
2.32041
2.65369
3.08588
3.68295
3.97748
3.98791
3.88215
3.7831
3.73808
3.73678
3.73849
3.71388
3.67475
3.63345
3.60344
3.58291
3.56508
3.54591
3.52114
3.48701
3.44827
3.40865
3.37235
3.33907
3.30701
3.27486
3.24243
3.20915
3.17411
3.13754
3.09896
3.05796
3.01223
2.95693
2.91632
6.3962
6.15946
5.87996
5.55954
5.25292
4.94899
4.67424
4.47883
4.29277
4.13044
3.97803
3.8264
3.66748
3.49415
3.32005
3.18895
3.04123
2.93622
2.89452
2.99343
3.31389
4.01382
5.0261
5.53243
5.47203
5.37716
5.27617
5.17318
5.07752
4.99708
4.93273
4.87671
4.82302
4.76737
4.70596
4.63486
4.55076
4.45022
4.33653
4.20786
4.07458
3.93202
3.78443
3.64534
3.51243
3.38368
3.26047
3.14776
3.03819
2.93513
2.83609
2.74526
2.65907
2.57397
2.49109
2.4163
2.34562
2.28389
2.22322
2.16594
2.11128
2.05666
2.02011
1.99488
2.00476
2.03487
2.14672
2.39962
2.74874
3.2667
3.78835
3.98999
3.91325
3.78307
3.69302
3.65658
3.65815
3.64603
3.62452
3.59999
3.57537
3.55461
3.53337
3.50823
3.47794
3.44105
3.40034
3.36158
3.327
3.29471
3.26218
3.22915
3.19577
3.15975
3.12157
3.08108
3.03846
2.99127
2.93471
2.89332
6.35843
6.18975
5.92408
5.61985
5.33077
5.05345
4.75503
4.54038
4.35179
4.16881
4.02932
3.88573
3.73758
3.57183
3.39504
3.24944
3.13882
3.09162
3.13999
3.42041
4.08954
5.11334
5.69462
5.67375
5.59941
5.49627
5.38017
5.26802
5.16369
5.06531
4.97626
4.90291
4.84096
4.7815
4.72004
4.65339
4.57764
4.49148
4.39298
4.28271
4.16041
4.03009
3.89516
3.75939
3.62323
3.49007
3.36518
3.24736
3.136
3.03009
2.92743
2.83066
2.73714
2.64537
2.55568
2.47071
2.40007
2.34005
2.28249
2.22484
2.16551
2.10844
2.05175
2.0016
1.97214
1.95126
1.95031
2.01887
2.17185
2.46677
2.91368
3.52886
3.85669
3.87974
3.7787
3.66191
3.6014
3.58553
3.58172
3.57431
3.56324
3.54694
3.52455
3.49594
3.46461
3.42836
3.38847
3.34928
3.31385
3.28085
3.24782
3.21329
3.17877
3.1421
3.10298
3.0618
3.01842
2.96984
2.91182
2.86944
5.79139
6.19157
5.9476
5.67529
5.39196
5.13416
4.85546
4.60341
4.42329
4.22957
4.06793
3.94624
3.81322
3.65584
3.47268
3.33813
3.28553
3.32947
3.59037
4.22436
5.25501
5.90147
5.90115
5.83922
5.72678
5.60427
5.48743
5.37495
5.26094
5.14531
5.03783
4.94588
4.87016
4.80148
4.73538
4.66718
4.59573
4.5168
4.42975
4.33199
4.22464
4.10802
3.98395
3.85403
3.72222
3.5917
3.4649
3.34346
3.22867
3.1201
3.01727
2.91875
2.82359
2.72859
2.63626
2.55066
2.47831
2.40781
2.34367
2.28411
2.22914
2.17436
2.11749
2.06131
2.00249
1.94467
1.90633
1.87969
1.925
2.05081
2.26853
2.61773
3.12116
3.6495
3.85176
3.79586
3.6611
3.5734
3.53244
3.53015
3.52846
3.52513
3.51304
3.49169
3.4579
3.41464
3.37004
3.33048
3.29461
3.26088
3.22742
3.19182
3.15605
3.11942
3.07928
3.03695
2.99315
2.94429
2.88565
2.84252
4.68643
5.92615
5.91404
5.72322
5.48019
5.21544
4.95555
4.68608
4.49163
4.31581
4.13745
4.00259
3.87685
3.73342
3.5761
3.48501
3.52031
3.77451
4.40645
5.44637
6.13926
6.1429
6.07663
5.94374
5.81208
5.69919
5.59136
5.47667
5.35212
5.22643
5.10704
4.999
4.90452
4.82268
4.74756
4.67589
4.60263
4.52702
4.44637
4.35934
4.26381
4.16051
4.0482
3.93061
3.80741
3.68286
3.55861
3.43871
3.32405
3.21493
3.11034
3.00884
2.91045
2.81598
2.72662
2.64382
2.56256
2.4873
2.41668
2.35173
2.29353
2.23367
2.17473
2.11512
2.0547
1.99048
1.92679
1.88993
1.86806
1.89598
1.97061
2.11431
2.3827
2.78063
3.3474
3.68746
3.75182
3.68085
3.58014
3.51121
3.48182
3.48307
3.48012
3.47169
3.4495
3.40652
3.35533
3.30866
3.271
3.2377
3.20596
3.17016
3.13126
3.09367
3.05327
3.01013
2.96664
2.91922
2.8602
2.81606
3.58407
5.3173
5.96224
5.80361
5.57343
5.30991
5.0586
4.80099
4.57381
4.40451
4.23223
4.07117
3.94579
3.81644
3.74049
3.7479
3.98619
4.62351
5.71142
6.44852
6.46024
6.37595
6.21174
6.05761
5.93952
5.8263
5.70566
5.57647
5.44486
5.31667
5.19216
5.0724
4.96022
4.85919
4.77008
4.68851
4.61142
4.53429
4.45605
4.37399
4.28755
4.19345
4.09355
3.98565
3.87354
3.75652
3.63943
3.52278
3.40941
3.29893
3.19348
3.08745
2.98418
2.88247
2.78607
2.6952
2.61179
2.53921
2.47349
2.40851
2.34414
2.28085
2.21839
2.15862
2.09728
2.0359
1.97589
1.91909
1.87852
1.85354
1.86452
1.90028
2.00437
2.21694
2.52384
2.96194
3.46709
3.68258
3.66298
3.57503
3.49622
3.45108
3.43865
3.43436
3.41824
3.38489
3.33808
3.28645
3.24239
3.20693
3.17562
3.14188
3.10205
3.06208
3.02257
2.97894
2.93306
2.88682
2.83104
2.78767
2.43473
4.16664
5.52703
5.81981
5.61892
5.39497
5.15525
4.91451
4.66679
4.4905
4.32356
4.13268
4.01255
3.94992
3.9833
4.22672
4.88682
6.01676
6.82601
6.83493
6.7125
6.50345
6.31806
6.18842
6.06559
5.93639
5.79963
5.66334
5.53105
5.40011
5.26915
5.14082
5.01757
4.90218
4.79695
4.70192
4.61583
4.53541
4.45529
4.37512
4.29202
4.2052
4.11313
4.0157
3.91392
3.80826
3.70058
3.5916
3.48277
3.37467
3.26905
3.16533
3.06366
2.96167
2.86113
2.76658
2.68217
2.60676
2.53995
2.47345
2.40789
2.34202
2.27681
2.21173
2.14339
2.07715
2.01703
1.96458
1.91399
1.87071
1.84104
1.84018
1.86971
1.93045
2.05993
2.29592
2.66093
3.14453
3.5159
3.63231
3.58954
3.49955
3.43199
3.39133
3.36837
3.34763
3.31305
3.26856
3.22462
3.18373
3.144
3.10683
3.06815
3.02652
2.98601
2.94599
2.90379
2.85758
2.80155
2.7577
1.59652
2.8504
4.56256
5.62494
5.66034
5.49642
5.2805
5.03778
4.78876
4.56635
4.37729
4.21899
4.13195
4.1847
4.46364
5.18013
6.39981
7.27836
7.28577
7.13446
6.87145
6.64421
6.49216
6.35477
6.21191
6.06086
5.91045
5.76682
5.62738
5.48985
5.35412
5.22042
5.08962
4.96316
4.84352
4.73248
4.63187
4.54162
4.45757
4.37636
4.29448
4.21063
4.12386
4.03398
3.94115
3.84626
3.74869
3.64993
3.54806
3.44704
3.34399
3.24279
3.13875
3.03556
2.93305
2.83662
2.74919
2.66958
2.5947
2.52387
2.45575
2.38904
2.32296
2.25472
2.18693
2.12294
2.06491
2.01231
1.96234
1.91454
1.87
1.84121
1.83308
1.82674
1.86805
1.96023
2.13681
2.41136
2.81507
3.29441
3.52037
3.53967
3.48298
3.39821
3.33061
3.28801
3.26332
3.23858
3.20215
3.15833
3.1131
3.06557
3.02222
2.98291
2.94567
2.90926
2.87138
2.82892
2.77294
2.72724
1.14897
1.87825
3.39654
4.99547
5.70011
5.59837
5.38605
5.16313
4.9253
4.66931
4.44985
4.3536
4.38268
4.67796
5.45787
6.78458
7.74307
7.72859
7.53887
7.2351
6.98019
6.81188
6.65521
6.49353
6.32642
6.16083
6.00402
5.85362
5.70719
5.56434
5.4236
5.28466
5.14813
5.01431
4.88494
4.76193
4.64855
4.54672
4.45514
4.36842
4.28372
4.19933
4.11566
4.03088
3.9451
3.85867
3.77087
3.68095
3.58833
3.49321
3.39639
3.29601
3.19232
3.0862
2.98339
2.88751
2.79911
2.7179
2.64241
2.57238
2.50602
2.43994
2.37444
2.30728
2.24007
2.17607
2.11739
2.06483
2.01899
1.97477
1.92938
1.88767
1.8546
1.82716
1.80712
1.82625
1.88191
1.99172
2.20108
2.52857
2.93085
3.31974
3.47816
3.45643
3.36373
3.26669
3.20882
3.17829
3.15175
3.11196
3.06859
3.02297
2.97706
2.93812
2.90398
2.87192
2.83807
2.8002
2.74358
2.69503
1.03825
1.31864
2.42481
3.95643
5.25794
5.63103
5.46513
5.23916
4.99148
4.74141
4.59479
4.6102
4.90927
5.76496
7.23723
8.29725
8.24681
7.99937
7.6439
7.36846
7.18534
7.01669
6.83562
6.64612
6.45656
6.27987
6.11452
5.95583
5.80268
5.6531
5.5068
5.36292
5.22114
5.08194
4.94554
4.81369
4.68854
4.57359
4.47003
4.37509
4.2844
4.19656
4.11191
4.03019
3.9487
3.86764
3.78677
3.70507
3.62148
3.53524
3.44583
3.35252
3.25401
3.1522
3.05169
2.9566
2.86873
2.78718
2.71015
2.63694
2.56556
2.49572
2.42548
2.35533
2.28798
2.22712
2.17263
2.12102
2.07255
2.02495
1.98082
1.93712
1.89413
1.85766
1.82115
1.80618
1.79842
1.82049
1.88077
1.99812
2.26005
2.62805
3.09129
3.34819
3.37204
3.31257
3.2144
3.13079
3.07988
3.04859
3.01211
2.9767
2.93854
2.89795
2.86263
2.83248
2.80295
2.76723
2.70812
2.6561
1.00965
1.05759
1.50288
2.58765
4.1034
5.18109
5.34057
5.17334
4.96918
4.81702
4.83804
5.16513
6.08363
7.69984
8.87877
8.78151
8.43863
8.02749
7.73695
7.55322
7.37901
7.18994
6.98675
6.77789
6.57785
6.38859
6.21015
6.04034
5.87722
5.71969
5.56632
5.41667
5.26977
5.12585
4.98464
4.84721
4.71496
4.59071
4.47771
4.37494
4.27909
4.18572
4.09524
4.01145
3.93446
3.86074
3.78722
3.7123
3.6356
3.55629
3.4731
3.385
3.29125
3.19337
3.09624
3.00386
2.91728
2.83561
2.75774
2.68261
2.60964
2.53772
2.46681
2.39698
2.33121
2.27287
2.22071
2.17031
2.12075
2.07267
2.02761
1.98488
1.9462
1.90924
1.87035
1.83744
1.79914
1.77625
1.76194
1.76736
1.86603
2.07762
2.37234
2.79252
3.11245
3.24186
3.21772
3.14966
3.06425
2.99836