/*--------------------------------*- C++ -*----------------------------------*\
| =========                 |                                                 |
| \\      /  F ield         | OpenFOAM: The Open Source CFD Toolbox           |
|  \\    /   O peration     | Version:  v2106                                 |
|   \\  /    A nd           | Website:  www.openfoam.com                      |
|    \\/     M anipulation  |                                                 |
\*---------------------------------------------------------------------------*/
FoamFile
{
    version     2.0;
    format      ascii;
    arch        "LSB;label=32;scalar=64";
    class       surfaceScalarField;
    location    "20";
    object      phi;
}
// * * * * * * * * * * * * * * * * * * * * * * * * * * * * * * * * * * * * * //

dimensions      [1 0 -1 0 0 0 0];

oriented        oriented;

internalField   nonuniform List<scalar> 
10325
(
0.0084507
-2.16353e-16
0.0084507
2.07031e-15
0.0084507
-3.379e-15
0.0084507
-1.5427e-14
0.0084507
3.56841e-13
0.0084507
-6.35538e-12
0.0084507
2.135e-11
0.0084507
-9.53197e-11
0.00845063
5.07914e-10
0.00845039
7.53894e-10
0.00844572
2.24944e-08
0.00841744
2.61365e-07
0.00811267
2.28963e-06
0.007135
2.52258e-05
0.00624231
8.62809e-05
0.00683917
0.00102527
0.00669074
0.000549973
0.006057
0.000659453
0.00535136
0.000710127
0.00465827
0.000786362
0.00383392
0.00089127
0.00293102
0.000965002
0.00197063
0.00100785
0.000995713
0.000995357
0.00100128
0.0084507
2.66551e-16
0.0084507
1.49661e-15
0.0084507
7.83138e-15
0.0084507
1.36015e-13
0.0084507
3.20472e-12
0.0084507
-1.08832e-11
0.0084507
1.04052e-10
0.0084507
-3.62901e-10
0.00845063
2.7523e-09
0.00845043
-6.20118e-09
0.00844561
1.04215e-07
0.00841895
3.51318e-07
0.00813074
-4.04208e-06
0.00716905
5.00651e-05
0.00624613
0.000198101
0.00671215
0.00213448
0.00661803
0.00110105
0.00598828
0.00132539
0.00527832
0.00142309
0.00456273
0.00160048
0.0037199
0.00179881
0.00282917
0.00191617
0.00193259
0.00195219
0.000987955
0.00196193
0.00199686
0.0084507
6.17453e-17
0.0084507
4.79678e-16
0.0084507
2.4703e-15
0.0084507
2.84499e-14
0.0084507
2.50051e-12
0.0084507
-2.3637e-12
0.0084507
7.65406e-11
0.0084507
-1.10981e-10
0.00845065
2.15645e-09
0.00845037
-1.4563e-09
0.00844627
1.11653e-07
0.0084204
6.35067e-07
0.00814666
-6.3797e-06
0.0071893
8.42178e-05
0.00624384
0.000316846
0.00652004
0.00331795
0.00651632
0.00172482
0.00586979
0.00203586
0.00508929
0.00223668
0.00435739
0.00243921
0.00362401
0.00260472
0.00284964
0.00275441
0.00198037
0.00287193
0.00102101
0.00295009
0.00303293
0.0084507
3.9408e-16
0.0084507
-2.79562e-16
0.0084507
2.48412e-15
0.0084507
1.18957e-14
0.0084507
3.05949e-13
0.0084507
7.07253e-13
0.0084507
2.64391e-11
0.0084507
4.77584e-11
0.00845066
1.85309e-09
0.00845031
7.58602e-09
0.00844713
1.16667e-07
0.00841968
1.1969e-06
0.0081753
3.00269e-06
0.00723562
0.000115248
0.00628982
0.000434327
0.00633184
0.00452128
0.00637695
0.00254552
0.0057448
0.00273489
0.00502995
0.00299751
0.00440988
0.00316894
0.00370966
0.00337917
0.00292301
0.00360163
0.00204991
0.0037945
0.00105944
0.00397093
0.00410889
0.0084507
5.37602e-16
0.0084507
-5.80482e-16
0.0084507
5.77267e-15
0.0084507
-5.35515e-16
0.0084507
3.71296e-13
0.0084507
1.01568e-12
0.0084507
3.09584e-11
0.0084507
2.23195e-11
0.00845067
2.43531e-09
0.00845038
5.41764e-10
0.00844774
1.6401e-07
0.00842523
7.88256e-07
0.00822934
1.02866e-05
0.00735898
0.000122598
0.00642738
0.000484276
0.00631888
0.00548915
0.00655737
0.00356782
0.00592281
0.00346686
0.00520113
0.00377208
0.0045598
0.00393908
0.00384797
0.00418059
0.00308334
0.00443454
0.00216935
0.00476821
0.00113928
0.0050396
0.00527354
0.0084507
-6.04361e-16
0.0084507
1.06753e-15
0.0084507
3.73798e-15
0.0084507
1.01545e-14
0.0084507
2.76061e-13
0.0084507
1.59393e-12
0.0084507
2.67655e-11
0.0084507
6.16313e-11
0.00845068
2.42301e-09
0.00845045
-3.8025e-09
0.00844852
1.89218e-07
0.00843173
-4.38021e-07
0.00829161
1.13496e-05
0.00752687
0.000103123
0.00665145
0.000339478
0.00651082
0.00577965
0.00708971
0.00482497
0.00636067
0.00422429
0.00556854
0.00455134
0.00485491
0.00474176
0.00411826
0.00497902
0.00327296
0.00534317
0.00235788
0.00573695
0.00125775
0.00618639
0.00656463
0.0084507
-6.22197e-16
0.0084507
9.34447e-16
0.0084507
1.33902e-15
0.0084507
1.24652e-14
0.0084507
1.58905e-13
0.0084507
3.13556e-13
0.0084507
2.96814e-11
0.0084507
1.00499e-10
0.00845068
2.19311e-09
0.00845051
5.50292e-09
0.0084491
1.65435e-07
0.00843539
-1.21683e-07
0.00833184
9.3744e-06
0.00765558
8.15954e-05
0.00675263
0.000182422
0.00676998
0.0050636
0.00760915
0.0063694
0.00676901
0.00502978
0.00594341
0.00531599
0.00521901
0.00552343
0.00449883
0.00572807
0.003729
0.00615726
0.00271732
0.00681647
0.00148329
0.00747755
0.0080985
0.0084507
-1.46774e-16
0.0084507
4.81169e-16
0.0084507
-4.98706e-15
0.0084507
6.37717e-15
0.0084507
-3.72426e-13
0.0084507
-8.99247e-13
0.0084507
2.53521e-11
0.0084507
5.43401e-11
0.00845069
1.47345e-09
0.00845056
7.08926e-09
0.00844975
9.6801e-08
0.0084387
6.99973e-07
0.00836434
6.91004e-06
0.00778203
6.34235e-05
0.00678005
0.000150254
0.00703036
0.00387988
0.00839413
0.00740716
0.00744732
0.00592454
0.00659362
0.00607047
0.0057688
0.00639328
0.00503628
0.00646464
0.00409348
0.00712831
0.00296457
0.00798292
0.0017193
0.00878778
0.00990924
0.0084507
3.08184e-17
0.0084507
1.32435e-16
0.0084507
2.31889e-15
0.0084507
1.55741e-14
0.0084507
1.80365e-13
0.0084507
1.60007e-12
0.0084507
1.28681e-11
0.0084507
7.91645e-11
0.0084507
7.64359e-10
0.00845057
6.90101e-09
0.00845006
6.34195e-08
0.00844136
5.89717e-07
0.00838654
5.34006e-06
0.00788687
5.26327e-05
0.00680234
0.000224511
0.00702147
0.00268462
0.00900948
0.00798797
0.00818419
0.00667934
0.00737661
0.00677359
0.00656856
0.00721422
0.00572553
0.00731965
0.00482806
0.00807501
0.00381891
0.00907957
0.00256
0.0101138
0.0126432
0.0084507
1.10372e-16
0.0084507
-1.02566e-16
0.0084507
5.27307e-15
0.0084507
1.20252e-14
0.0084507
-5.02386e-14
0.0084507
2.27559e-12
0.0084507
-1.07935e-13
0.0084507
1.0004e-10
0.0084507
2.91649e-10
0.0084506
6.79859e-09
0.00845026
3.89547e-08
0.00844354
5.14868e-07
0.00840438
3.92583e-06
0.00800106
4.34709e-05
0.00696471
0.000269362
0.00680952
0.00190881
0.00896196
0.008225
0.00864581
0.00699258
0.00807557
0.00729909
0.00734876
0.00788727
0.00650203
0.00816075
0.00558138
0.00901995
0.00451707
0.0101925
0.0027945
0.0118802
0.0159517
0.0084507
7.02021e-17
0.0084507
2.56414e-17
0.0084507
4.70435e-15
0.0084507
1.80742e-14
0.0084507
-7.69935e-14
0.0084507
1.82213e-12
0.0084507
-1.03735e-11
0.0084507
1.3303e-10
0.0084507
-2.03158e-10
0.00845063
6.71978e-09
0.00845041
4.63098e-09
0.00844542
4.14014e-07
0.0084181
2.55371e-06
0.00811814
2.20005e-05
0.00717504
0.000268376
0.00671251
0.00144257
0.00864949
0.00817816
0.00877155
0.00721543
0.00848296
0.00760368
0.00801216
0.00835623
0.00728379
0.00892246
0.006524
0.00981933
0.00612219
0.0107943
0.00596369
0.0124205
0.0136309
0.00912199
0.0084507
1.13028e-17
0.0084507
1.4512e-16
0.0084507
1.35016e-15
0.0084507
1.36523e-14
0.0084507
1.19634e-13
0.0084507
1.01801e-12
0.0084507
6.3712e-13
0.0084507
4.97696e-11
0.0084507
1.58948e-10
0.00845066
5.5563e-09
0.00845032
-1.32667e-09
0.00844729
4.19173e-07
0.00842433
-2.26419e-06
0.00821887
1.62604e-05
0.00737855
0.00023178
0.00674038
0.0011191
0.00808809
0.00799923
0.00867483
0.0076361
0.00863851
0.00772906
0.00848789
0.00849744
0.00795689
0.00941431
0.00761645
0.0101764
0.0077351
0.010718
0.00819133
0.0117518
0.0121613
0.0104921
0.0084507
-4.94667e-17
0.0084507
2.5804e-16
0.0084507
-4.39021e-16
0.0084507
-2.56701e-15
0.0084507
4.1885e-14
0.0084507
2.88288e-13
0.0084507
4.07905e-12
0.0084507
-1.73608e-11
0.0084507
2.17285e-10
0.00845068
2.58841e-09
0.00845048
3.61948e-09
0.00844893
3.9117e-07
0.00843465
-5.63642e-06
0.00831511
2.04946e-05
0.00763443
0.000156804
0.0069063
0.000790998
0.00775592
0.00720353
0.00867199
0.00867266
0.00842396
0.00796747
0.00846898
0.00841771
0.0085013
0.00934389
0.00859391
0.0101061
0.00881519
0.0106357
0.00937459
0.0111662
0.0112753
0.0108595
0.0084507
-5.34241e-17
0.0084507
1.53713e-16
0.0084507
-9.6616e-16
0.0084507
-1.19437e-14
0.0084507
4.01661e-14
0.0084507
-2.75273e-13
0.0084507
1.49943e-12
0.0084507
-3.35149e-12
0.0084507
8.46814e-12
0.00845069
1.3519e-09
0.00845058
9.12849e-09
0.00844972
2.19455e-07
0.00843824
-1.68789e-06
0.00837175
1.18376e-05
0.00784891
9.71226e-05
0.00707395
0.000462989
0.00786435
0.00536912
0.00927587
0.00996892
0.00885818
0.00843402
0.00864137
0.00856376
0.00877016
0.00921706
0.00909998
0.00989028
0.00953713
0.0103506
0.0100618
0.0107551
0.0104748
0.0113334
0.0084507
1.35796e-17
0.0084507
3.08456e-17
0.0084507
1.56944e-15
0.0084507
6.15168e-15
0.0084507
-6.66237e-15
0.0084507
3.44979e-13
0.0084507
3.51841e-13
0.0084507
4.58162e-11
0.0084507
1.99763e-10
0.0084507
4.48896e-10
0.00845058
1.26286e-08
0.0084503
6.58857e-08
0.00844206
8.10647e-07
0.00840429
6.29394e-06
0.00803303
-9.60024e-06
0.00709086
0.00043809
0.00776269
0.00355214
0.0101079
0.0106028
0.00951334
0.00904079
0.0092127
0.00897138
0.00915758
0.00929591
0.00940652
0.00973385
0.00986797
0.009989
0.0104262
0.0102843
0.00985132
0.011407
0.0084507
4.14707e-18
0.0084507
5.80861e-17
0.0084507
4.91604e-16
0.0084507
7.05038e-15
0.0084507
-8.8997e-15
0.0084507
5.58156e-13
0.0084507
1.16979e-12
0.0084507
1.3817e-11
0.0084507
1.36561e-10
0.0084507
-2.91838e-10
0.00845064
1.16679e-08
0.00845045
2.41648e-08
0.00844626
7.0072e-07
0.00842402
3.76891e-06
0.00816615
-3.0091e-05
0.00730257
0.000376182
0.00742858
0.0022128
0.0102208
0.00953403
0.0103046
0.00980533
0.00992434
0.00955991
0.00966302
0.00956519
0.00970046
0.00968722
0.0100125
0.00973682
0.0105642
0.00984233
0.0094595
0.0112668
0.0084507
-4.25549e-18
0.0084507
3.52637e-17
0.0084507
2.73626e-16
0.0084507
4.7861e-15
0.0084507
2.40727e-14
0.0084507
1.58317e-13
0.0084507
1.51404e-12
0.0084507
-2.4368e-13
0.0084507
1.42303e-10
0.0084507
4.64458e-10
0.00845071
2.77424e-09
0.00845037
3.28825e-08
0.00844955
2.74621e-07
0.00843326
2.48177e-06
0.00828743
2.43906e-05
0.00760858
0.000211961
0.00728831
0.00127335
0.0091766
0.00782698
0.0104678
0.0104053
0.0102495
0.00990041
0.0100568
0.00969896
0.0100322
0.00968655
0.0102352
0.00959992
0.010647
0.00951929
0.0091865
0.0111701
0.0084507
-2.24972e-18
0.0084507
1.20889e-17
0.0084507
2.6506e-16
0.0084507
1.63912e-15
0.0084507
2.87255e-14
0.0084507
5.99803e-14
0.0084507
1.70341e-12
0.0084507
7.1537e-12
0.0084507
4.78329e-11
0.0084507
5.07901e-10
0.0084507
7.74558e-11
0.00845053
1.83059e-08
0.00845012
9.354e-08
0.00844015
8.9176e-07
0.00838835
1.28761e-05
0.00799871
-9.20659e-06
0.00732771
0.000840721
0.00854404
0.00542823
0.0109113
0.0108909
0.0107543
0.0100988
0.0106382
0.00992324
0.0105589
0.00978972
0.0106303
0.00961269
0.010841
0.0094089
0.00898419
0.0112218
0.0084507
9.75782e-19
0.0084507
1.01373e-17
0.0084507
3.1469e-17
0.0084507
7.24383e-16
0.0084507
8.04844e-15
0.0084507
4.77207e-14
0.0084507
6.04862e-13
0.0084507
4.35358e-12
0.0084507
8.08443e-12
0.0084507
4.94649e-11
0.0084507
6.79006e-10
0.00845063
8.22503e-09
0.0084501
7.22027e-08
0.00844542
2.70838e-07
0.00840772
8.45283e-06
0.00812045
-5.43669e-05
0.00736955
0.000539754
0.00821864
0.00329171
0.0112787
0.0100645
0.0114407
0.0105715
0.0112828
0.0103311
0.0110957
0.0100224
0.011032
0.00972237
0.0110905
0.00940807
0.0089287
0.011281
0.0084507
1.35525e-18
0.0084507
5.44812e-18
0.0084507
2.8894e-17
0.0084507
6.14987e-16
0.0084507
1.05618e-15
0.0084507
2.82108e-14
0.0084507
1.13871e-13
0.0084507
1.7224e-12
0.0084507
8.79183e-12
0.0084507
-4.65744e-12
0.0084507
1.57453e-09
0.00845071
1.04984e-09
0.00845019
5.99203e-08
0.00845008
2.63131e-07
0.00842524
3.31964e-06
0.00823684
4.21453e-05
0.0077918
-8.49557e-05
0.00806564
0.00187188
0.0105523
0.00825223
0.0118684
0.0111783
0.0116786
0.010778
0.0114859
0.0101771
0.0113906
0.00981848
0.0114066
0.00943936
0.00895147
0.0114994
0.0084507
-5.42101e-20
0.0084507
2.57498e-18
0.0084507
1.04354e-17
0.0084507
2.35814e-16
0.0084507
1.53247e-15
0.0084507
1.31763e-15
0.0084507
6.15478e-14
0.0084507
2.3831e-13
0.0084507
2.90199e-12
0.0084507
6.80686e-11
0.0084507
1.10014e-09
0.00845069
1.88147e-10
0.00845058
2.29901e-08
0.00844966
7.32491e-08
0.00844216
1.25354e-06
0.00838202
2.55585e-05
0.00801663
-0.000224848
0.00745735
0.00112352
0.00908219
0.0054087
0.0119325
0.0111933
0.011846
0.0108794
0.0118582
0.0103484
0.0117542
0.00995457
0.0117184
0.00951101
0.00901425
0.0117531
0.0084507
3.25261e-19
0.0084507
8.40257e-19
0.0084507
3.97089e-17
0.0084507
2.83763e-16
0.0084507
5.46194e-16
0.0084507
9.74207e-15
0.0084507
5.26218e-14
0.0084507
7.5348e-13
0.0084507
5.36502e-12
0.0084507
3.33273e-12
0.0084507
3.57583e-10
0.0084507
1.0443e-09
0.00845053
1.9124e-08
0.00845059
1.62814e-07
0.00845137
4.15655e-07
0.00841044
6.5312e-06
0.00803657
6.18042e-05
0.00775843
-0.000173889
0.00892782
0.00325548
0.0121493
0.00957484
0.0127532
0.0114132
0.0124552
0.0108619
0.0122366
0.0101764
0.0121214
0.00967258
0.00915087
0.0120717
0.0084507
6.77626e-19
0.0084507
-4.87891e-19
0.0084507
2.15214e-17
0.0084507
1.10101e-16
0.0084507
2.31694e-16
0.0084507
4.66483e-15
0.0084507
2.56377e-14
0.0084507
3.94283e-13
0.0084507
2.37641e-12
0.0084507
1.95558e-12
0.0084507
1.7942e-10
0.0084507
2.5027e-10
0.00845069
7.6116e-09
0.00845053
7.82889e-08
0.00844921
9.70005e-08
0.00843889
1.60452e-06
0.00835272
3.43651e-05
0.00794803
-0.000446528
0.00790031
0.00182569
0.010186
0.00697881
0.0126235
0.0115692
0.0125383
0.0109693
0.0125609
0.0102757
0.0124804
0.0098452
0.00932038
0.0124086
0.0084507
-5.42101e-20
0.0084507
1.40946e-18
0.0084507
-2.33103e-18
0.0084507
3.69442e-17
0.0084507
1.01996e-16
0.0084507
7.1308e-16
0.0084507
8.91298e-15
0.0084507
5.38489e-14
0.0084507
5.17887e-13
0.0084507
4.85036e-12
0.0084507
2.17434e-11
0.0084507
5.03515e-10
0.00845069
1.87273e-09
0.00845059
1.61758e-08
0.00844982
2.27826e-07
0.00844722
9.38891e-07
0.00842285
1.00147e-05
0.00790839
6.65275e-05
0.0076717
0.000118779
0.00937809
0.00421379
0.0128332
0.0102774
0.0132459
0.0113082
0.0131149
0.0107344
0.0129515
0.0100961
0.00954709
0.0128039
0.0084507
-1.0842e-19
0.0084507
1.49078e-18
0.0084507
-3.52366e-18
0.0084507
2.09522e-17
0.0084507
-2.50722e-17
0.0084507
4.63551e-16
0.0084507
2.13032e-15
0.0084507
1.99164e-14
0.0084507
3.60682e-13
0.0084507
1.79671e-12
0.0084507
6.95174e-13
0.0084507
2.46868e-10
0.0084507
3.1977e-10
0.00845067
1.10221e-08
0.00845047
1.00889e-07
0.0084488
2.30786e-07
0.00843466
3.37951e-06
0.00832099
3.58096e-05
0.00797117
-0.000329937
0.00842582
0.00219891
0.0114333
0.00771583
0.013466
0.0115316
0.0133543
0.0110863
0.0133156
0.010293
0.00979728
0.0131534
0.0084507
1.35525e-19
0.0084507
-5.69206e-19
0.0084507
5.42101e-20
0.0084507
5.50233e-18
0.0084507
7.00124e-17
0.0084507
6.46862e-16
0.0084507
7.3845e-16
0.0084507
2.31474e-14
0.0084507
1.29689e-13
0.0084507
1.55102e-12
0.0084507
1.36737e-11
0.0084507
3.74681e-11
0.0084507
6.49245e-10
0.0084507
2.80778e-09
0.00845048
3.87653e-08
0.00845072
2.64125e-07
0.00845282
1.11705e-06
0.00839671
1.19643e-05
0.007929
9.40008e-05
0.00783519
0.000244406
0.00978318
0.00476585
0.0134498
0.0103353
0.0139056
0.0113359
0.0137409
0.0108079
0.010099
0.0135092
0.0084507
7.86047e-19
0.0084507
0
0.0084507
3.79471e-19
0.0084507
3.79471e-18
0.0084507
3.03306e-17
0.0084507
4.13948e-16
0.0084507
-4.96022e-18
0.0084507
8.0367e-15
0.0084507
5.08566e-14
0.0084507
5.66476e-13
0.0084507
7.67988e-12
0.0084507
9.47433e-12
0.0084507
2.90766e-10
0.0084507
6.72093e-10
0.00845068
1.39434e-08
0.00845045
1.25728e-07
0.00844864
2.7526e-07
0.00843371
3.06705e-06
0.00832823
4.24112e-05
0.00805463
-0.00036287
0.00873932
0.00250848
0.011947
0.00781983
0.0140308
0.0114553
0.0139053
0.0111318
0.0103071
0.0138213
0.0084507
4.06576e-19
0.0084507
8.13152e-19
0.0084507
1.78893e-18
0.0084507
3.63208e-18
0.0084507
1.06252e-17
0.0084507
5.68935e-17
0.0084507
5.32994e-16
0.0084507
4.87208e-15
0.0084507
1.20283e-14
0.0084507
2.63897e-13
0.0084507
-8.20146e-14
0.0084507
1.32444e-11
0.0084507
1.13774e-11
0.0084507
8.10982e-10
0.0084507
1.73296e-09
0.00845052
4.32871e-08
0.0084508
3.05896e-07
0.0084526
1.28302e-06
0.00840191
8.14048e-06
0.00796913
9.05619e-05
0.0078329
0.000562964
0.00989603
0.00471613
0.0137169
0.00999244
0.0143058
0.0112509
0.0107758
0.014108
0.0084507
-2.98156e-19
0.0084507
-1.6263e-19
0.0084507
-5.69206e-19
0.0084507
-2.71051e-19
0.0084507
1.51788e-18
0.0084507
1.53957e-17
0.0084507
2.03451e-16
0.0084507
2.37123e-15
0.0084507
1.6881e-15
0.0084507
1.3862e-13
0.0084507
-8.0218e-13
0.0084507
5.90926e-12
0.0084507
-2.62588e-11
0.0084507
3.67611e-10
0.0084507
-8.0607e-10
0.00845068
1.75351e-08
0.0084505
6.57014e-08
0.00844896
3.5618e-07
0.00843527
-2.0965e-06
0.00835708
3.09147e-05
0.0081328
-0.000162333
0.00893286
0.00237195
0.0120696
0.00739532
0.0143604
0.0111638
0.0109661
0.0142465
0.0084507
-2.43945e-19
0.0084507
2.71051e-20
0.0084507
-1.92446e-18
0.0084507
-2.38524e-18
0.0084507
-2.11419e-18
0.0084507
4.93312e-18
0.0084507
2.13046e-17
0.0084507
4.21673e-16
0.0084507
1.76199e-15
0.0084507
2.8572e-14
0.0084507
1.25966e-13
0.0084507
1.65586e-12
0.0084507
6.44399e-12
0.0084507
8.82223e-11
0.0084507
4.02968e-10
0.0084507
6.00194e-09
0.00845067
-4.94801e-08
0.00845096
2.40576e-07
0.00844803
1.17439e-06
0.00840016
1.45761e-05
0.00808878
9.16782e-05
0.00779261
0.000790763
0.00985796
0.0041953
0.0138628
0.00926264
0.0110005
0.0146589
0.0084507
8.13152e-20
0.0084507
1.89735e-19
0.0084507
-3.52366e-19
0.0084507
-8.13152e-20
0.0084507
-2.98156e-19
0.0084507
2.6834e-18
0.0084507
4.98733e-18
0.0084507
2.3744e-16
0.0084507
1.14831e-15
0.0084507
5.34623e-15
0.0084507
6.97217e-14
0.0084507
4.30542e-13
0.0084507
2.62551e-12
0.0084507
2.73922e-11
0.0084507
1.67273e-10
0.00845071
1.54417e-09
0.00845066
6.76365e-09
0.00845043
7.53701e-08
0.00845004
7.99469e-08
0.0084388
4.82336e-06
0.00839174
2.4181e-05
0.0082061
6.53301e-05
0.00887741
0.00199382
0.011794
0.00658546
0.0105498
0.0145346
0.0084507
-2.43945e-19
0.0084507
-5.42101e-19
0.0084507
5.42101e-20
0.0084507
2.98156e-19
0.0084507
3.52366e-19
0.0084507
1.6263e-18
0.0084507
4.63496e-18
0.0084507
9.3919e-17
0.0084507
5.62538e-16
0.0084507
6.92534e-17
0.0084507
2.78957e-14
0.0084507
1.35958e-13
0.0084507
1.90336e-12
0.0084507
3.93948e-12
0.0084507
1.15343e-10
0.00845071
2.19576e-10
0.0084507
7.41659e-10
0.00845073
2.0379e-08
0.00844993
1.59682e-07
0.00845136
1.42324e-06
0.00841995
2.34501e-06
0.00824816
9.40417e-05
0.00782081
0.000880978
0.00965581
0.00351459
0.0080482
0.0137183
0.0084507
-6.50521e-19
0.0084507
-4.60786e-19
0.0084507
-1.21973e-18
0.0084507
-1.54499e-18
0.0084507
-1.95156e-18
0.0084507
-2.11419e-18
0.0084507
-2.38524e-18
0.0084507
2.19551e-17
0.0084507
1.51463e-16
0.0084507
6.26235e-16
0.0084507
9.95506e-15
0.0084507
6.49998e-14
0.0084507
7.38108e-13
0.0084507
2.33902e-13
0.0084507
4.24195e-11
0.0084507
-1.82379e-10
0.0084507
3.48218e-10
0.0084507
5.08524e-09
0.00845053
4.56013e-08
0.00845008
3.20543e-07
0.00844136
-5.58751e-06
0.00840761
2.96555e-05
0.00829305
0.00019581
0.00929994
0.000790637
0.0058143
0.0115667
0.0084507
-4.87891e-19
0.0084507
4.33681e-19
0.0084507
-1.89735e-19
0.0084507
-1.6263e-19
0.0084507
-5.42101e-19
0.0084507
-6.23416e-19
0.0084507
8.13152e-20
0.0084507
6.93889e-18
0.0084507
3.34476e-17
0.0084507
2.09712e-16
0.0084507
2.84034e-15
0.0084507
2.02609e-14
0.0084507
1.45237e-13
0.0084507
1.17525e-12
0.0084507
8.11873e-12
0.0084507
3.71146e-11
0.0084507
7.33107e-11
0.0084507
2.21777e-09
0.00845066
1.39855e-08
0.00845086
1.75596e-07
0.00844777
3.77835e-07
0.00843077
1.04127e-05
0.00843725
7.00954e-05
0.00816924
-0.000207218
0.00309121
0.00960437
0.0084507
-1.0842e-19
0.0084507
3.79471e-19
0.0084507
9.48677e-19
0.0084507
8.13152e-19
0.0084507
1.16552e-18
0.0084507
1.84314e-18
0.0084507
3.25261e-18
0.0084507
6.23416e-18
0.0084507
7.02021e-18
0.0084507
8.27246e-17
0.0084507
6.85731e-16
0.0084507
5.39393e-15
0.0084507
3.13011e-14
0.0084507
3.44329e-13
0.0084507
2.71119e-12
0.0084507
2.90555e-12
0.0084507
8.41531e-11
0.0084507
7.83582e-10
0.00845069
2.7761e-09
0.00845065
7.33858e-08
0.00845009
-3.58336e-07
0.00845476
1.86089e-06
0.00842552
1.27611e-05
0.00815356
0.000118542
0.00106164
0.00825652
0.0084507
4.60786e-19
0.0084507
2.1684e-19
0.0084507
3.52366e-19
0.0084507
9.75782e-19
0.0084507
1.16552e-18
0.0084507
2.05998e-18
0.0084507
2.60209e-18
0.0084507
3.14419e-18
0.0084507
6.36969e-18
0.0084507
1.07065e-17
0.0084507
1.90061e-16
0.0084507
1.16685e-15
0.0084507
3.42047e-15
0.0084507
6.8548e-14
0.0084507
6.85967e-13
0.0084507
2.42717e-12
0.0084507
1.3328e-11
0.0084507
1.9677e-10
0.0084507
1.24666e-09
0.00845069
1.62387e-08
0.00845049
9.47695e-08
0.00845005
-1.72368e-07
0.00843724
5.6582e-06
0.00841829
3.07574e-05
0.000179758
0.00834862
0.0084507
1.0842e-19
0.0084507
3.52366e-19
0.0084507
1.0842e-19
0.0084507
6.23416e-19
0.0084507
-5.42101e-20
0.0084507
1.35525e-19
0.0084507
-5.14996e-19
0.0084507
-9.48677e-19
0.0084507
6.77626e-19
0.0084507
3.82181e-18
0.0084507
2.31748e-17
0.0084507
3.79444e-16
0.0084507
2.10319e-15
0.0084507
2.28412e-14
0.0084507
1.69009e-13
0.0084507
8.8668e-13
0.0084507
2.06619e-12
0.0084507
6.1493e-11
0.00845071
6.35062e-11
0.0084507
3.78842e-09
0.00845077
1.42015e-08
0.00845018
1.78153e-07
0.00845224
1.11354e-06
0.00843547
7.46822e-06
8.65531e-05
0.00842051
0.0084507
-2.43945e-19
0.0084507
2.71051e-20
0.0084507
2.43945e-19
0.0084507
6.50521e-19
0.0084507
4.33681e-19
0.0084507
3.25261e-19
0.0084507
5.69206e-19
0.0084507
8.67362e-19
0.0084507
4.60786e-19
0.0084507
1.89735e-19
0.0084507
1.3932e-17
0.0084507
7.31836e-17
0.0084507
3.17888e-16
0.0084507
5.78923e-15
0.0084507
4.05413e-14
0.0084507
8.5851e-14
0.0084507
2.78597e-12
0.0084507
1.40372e-11
0.0084507
4.91157e-11
0.0084507
5.39886e-10
0.00845069
5.51472e-09
0.00845062
3.65627e-08
0.00845028
2.69684e-07
0.00844845
-3.47836e-07
1.16585e-05
0.00846809
0.0084507
4.06576e-19
0.0084507
6.23416e-19
0.0084507
6.23416e-19
0.0084507
3.25261e-19
0.0084507
1.89735e-19
0.0084507
-2.1684e-19
0.0084507
-4.87891e-19
0.0084507
-5.42101e-19
0.0084507
-1.84314e-18
0.0084507
-1.76183e-18
0.0084507
-6.77626e-19
0.0084507
2.11419e-17
0.0084507
1.57589e-16
0.0084507
1.49314e-15
0.0084507
1.1322e-14
0.0084507
-9.20579e-14
0.0084507
8.44269e-13
0.0084507
1.9624e-12
0.0084507
2.41496e-11
0.0084507
3.06754e-10
0.0084507
1.7319e-09
0.0084507
1.22224e-08
0.00845056
8.73552e-08
0.00844878
4.77145e-07
1.87584e-07
0.00844147
0.0084507
1.6263e-19
0.0084507
1.0842e-19
0.0084507
1.89735e-19
0.0084507
-5.42101e-19
0.0084507
-5.69206e-19
0.0084507
-1.11131e-18
0.0084507
-1.24683e-18
0.0084507
-1.57209e-18
0.0084507
-1.51788e-18
0.0084507
-1.38236e-18
0.0084507
-1.68051e-18
0.0084507
4.98733e-18
0.0084507
3.38542e-17
0.0084507
2.82652e-16
0.0084507
1.90722e-15
0.0084507
1.97612e-14
0.0084507
2.28975e-13
0.0084507
1.37652e-13
0.0084507
2.50578e-12
0.0084507
9.1481e-11
0.0084507
1.64465e-10
0.00845071
4.88765e-09
0.00845074
3.57958e-08
0.00845049
-2.92658e-08
1.45484e-06
0.00844771
0.0084507
-2.43945e-19
0.0084507
-7.86047e-19
0.0084507
-3.52366e-19
0.0084507
2.71051e-20
0.0084507
2.1684e-19
0.0084507
3.25261e-19
0.0084507
7.04731e-19
0.0084507
4.60786e-19
0.0084507
1.19262e-18
0.0084507
1.11131e-18
0.0084507
4.33681e-19
0.0084507
3.14419e-18
0.0084507
1.02728e-17
0.0084507
7.88486e-17
0.0084507
1.4363e-16
0.0084507
4.40696e-15
0.0084507
6.72813e-14
0.0084507
-8.66216e-13
0.0084507
2.54635e-12
0.0084507
2.27846e-11
0.0084507
-1.22615e-10
0.0084507
1.31389e-09
0.0084507
7.86326e-09
0.00845052
2.75741e-08
2.56634e-07
0.00845113
0.0084507
4.60786e-19
0.0084507
4.06576e-19
0.0084507
6.50521e-19
0.0084507
8.67362e-19
0.0084507
1.0842e-18
0.0084507
1.00289e-18
0.0084507
7.58942e-19
0.0084507
7.86047e-19
0.0084507
4.60786e-19
0.0084507
6.50521e-19
0.0084507
1.21973e-18
0.0084507
1.51788e-18
0.0084507
2.98156e-18
0.0084507
2.76472e-17
0.0084507
1.89193e-17
0.0084507
1.33319e-15
0.0084507
9.90321e-15
0.0084507
4.19007e-14
0.0084507
4.62245e-13
0.0084507
3.94894e-12
0.0084507
2.89854e-11
0.0084507
3.75872e-10
0.00845071
2.25226e-09
0.00845071
1.01816e-08
7.93403e-08
0.00845049
0.0084507
1.0842e-19
0.0084507
-1.0842e-19
0.0084507
-5.14996e-19
0.0084507
-1.32815e-18
0.0084507
-8.94467e-19
0.0084507
-6.23416e-19
0.0084507
-9.48677e-19
0.0084507
-1.11131e-18
0.0084507
-1.57209e-18
0.0084507
-1.0842e-18
0.0084507
-8.13152e-19
0.0084507
-8.40257e-19
0.0084507
5.42101e-20
0.0084507
1.02999e-17
0.0084507
7.39155e-17
0.0084507
3.00432e-16
0.0084507
4.3155e-15
0.0084507
5.27966e-15
0.0084507
2.54528e-13
0.0084507
6.58137e-13
0.0084507
1.56485e-11
0.0084507
9.40337e-11
0.0084507
7.84211e-10
0.00845071
1.80832e-09
7.77777e-09
0.00845067
0.0084507
-4.06576e-19
0.0084507
-9.75782e-19
0.0084507
-8.40257e-19
0.0084507
-1.32815e-18
0.0084507
-1.43657e-18
0.0084507
-1.30104e-18
0.0084507
-1.0571e-18
0.0084507
-1.32815e-18
0.0084507
-1.32815e-18
0.0084507
-8.67362e-19
0.0084507
-1.16552e-18
0.0084507
-1.19262e-18
0.0084507
-1.76183e-18
0.0084507
9.21572e-19
0.0084507
1.56396e-17
0.0084507
7.6382e-17
0.0084507
9.38919e-16
0.0084507
7.0175e-15
0.0084507
7.25283e-14
0.0084507
3.9774e-13
0.0084507
6.14864e-12
0.0084507
3.75234e-12
0.0084507
1.39795e-10
0.00845071
5.31623e-10
4.41815e-09
0.0084507
0.0084507
-1.35525e-19
0.0084507
-2.71051e-19
0.0084507
-1.6263e-19
0.0084507
-2.71051e-20
0.0084507
1.0842e-19
0.0084507
-2.98156e-19
0.0084507
-2.71051e-19
0.0084507
-3.25261e-19
0.0084507
-2.98156e-19
0.0084507
-6.50521e-19
0.0084507
-1.24683e-18
0.0084507
-1.57209e-18
0.0084507
-1.87025e-18
0.0084507
-3.68629e-18
0.0084507
1.76183e-18
0.0084507
3.52095e-17
0.0084507
3.67328e-16
0.0084507
3.79552e-16
0.0084507
2.44297e-14
0.0084507
-2.35409e-14
0.0084507
9.96846e-13
0.0084507
4.45434e-12
0.0084507
2.91638e-11
0.0084507
-5.14118e-12
-7.05077e-10
0.00845071
0.0084507
2.43945e-19
0.0084507
1.89735e-19
0.0084507
1.6263e-19
0.0084507
1.35525e-19
0.0084507
1.89735e-19
0.0084507
-5.96311e-19
0.0084507
-9.48677e-19
0.0084507
-1.24683e-18
0.0084507
-1.73472e-18
0.0084507
-2.03288e-18
0.0084507
-2.1413e-18
0.0084507
-1.97867e-18
0.0084507
-2.30393e-18
0.0084507
-3.17129e-18
0.0084507
2.1413e-18
0.0084507
1.78893e-18
0.0084507
7.73036e-17
0.0084507
-9.59275e-16
0.0084507
5.28462e-15
0.0084507
-5.54767e-15
0.0084507
2.0999e-13
0.0084507
3.8594e-13
0.0084507
2.684e-12
0.0084507
2.0731e-11
-1.66881e-10
0.0084507
0.0084507
1.89735e-19
0.0084507
5.96311e-19
0.0084507
5.42101e-19
0.0084507
5.42101e-19
0.0084507
7.31836e-19
0.0084507
2.71051e-19
0.0084507
-3.79471e-19
0.0084507
-5.69206e-19
0.0084507
-5.14996e-19
0.0084507
-9.48677e-19
0.0084507
-1.13841e-18
0.0084507
-1.30104e-18
0.0084507
-1.49078e-18
0.0084507
-1.95156e-18
0.0084507
-2.03288e-18
0.0084507
-1.27394e-18
0.0084507
-5.96311e-19
0.0084507
-7.04731e-18
0.0084507
9.87302e-16
0.0084507
3.16888e-15
0.0084507
4.28796e-14
0.0084507
-3.36998e-13
0.0084507
-1.75261e-12
0.0084507
1.65964e-11
-1.16531e-10
0.0084507
0.0084507
7.52316e-36
0.0084507
2.43945e-19
0.0084507
1.89735e-19
0.0084507
5.42101e-20
0.0084507
1.0842e-19
0.0084507
2.71051e-20
0.0084507
5.42101e-19
0.0084507
8.13152e-19
0.0084507
9.75782e-19
0.0084507
-1.0842e-19
0.0084507
-4.06576e-19
0.0084507
-1.68051e-18
0.0084507
-1.57209e-18
0.0084507
-2.03288e-18
0.0084507
-1.43657e-18
0.0084507
-1.13841e-18
0.0084507
3.44234e-18
0.0084507
-9.97466e-18
0.0084507
3.06911e-16
0.0084507
1.58134e-15
0.0084507
1.40671e-14
0.0084507
-8.47145e-14
0.0084507
-2.50227e-13
0.0084507
6.99451e-12
-3.43923e-11
0.0084507
0.0084507
-3.52366e-19
0.0084507
-7.58942e-19
0.0084507
-1.68051e-18
0.0084507
-2.03288e-18
0.0084507
-2.41235e-18
0.0084507
-2.62919e-18
0.0084507
-2.11419e-18
0.0084507
-2.24972e-18
0.0084507
-1.92446e-18
0.0084507
-1.6263e-18
0.0084507
-1.0842e-18
0.0084507
-6.77626e-19
0.0084507
-4.33681e-19
0.0084507
-5.42101e-20
0.0084507
5.42101e-20
0.0084507
8.67362e-19
0.0084507
3.68629e-18
0.0084507
1.59649e-17
0.0084507
5.60533e-17
0.0084507
4.43547e-16
0.0084507
2.38178e-15
0.0084507
2.1906e-14
0.0084507
1.34818e-13
0.0084507
1.80546e-12
-6.99608e-12
0.0084507
0.0084507
0.0084507
0.0084507
0.0084507
0.0084507
0.0084507
0.0084507
0.0084507
0.0084507
0.0084507
0.0084507
0.0084507
0.0084507
0.0084507
0.0084507
0.0084507
0.0084507
0.0084507
0.0084507
0.0084507
0.0084507
0.0084507
0.0084507
0.0084507
0.0084507
0.00315084
0.00455352
-2.74153e-05
0.00317043
-0.00159069
0.00156655
-0.00189287
0.000297816
-0.00190497
1.34968e-05
-0.00190557
5.42375e-05
-0.00240712
0.000592022
-0.00297462
0.000484931
-0.00335896
0.000314332
-0.00353538
0.00017151
-0.0035734
3.68385e-05
-0.00355481
-1.38494e-05
-0.00354052
-4.91637e-06
-0.00348871
1.11013e-05
-0.00345583
-1.15467e-05
-0.00353568
2.12927e-05
-0.00362066
4.99309e-05
-0.00366535
3.98842e-05
-0.00370103
2.05485e-05
-0.00369291
9.36094e-07
-0.00368271
-5.31665e-06
-0.00367682
-4.6986e-06
-0.00367119
-2.58666e-06
-0.00367204
2.5805e-06
-0.00367064
3.34303e-06
-0.00366974
3.27806e-06
-0.00367059
-2.42556e-06
-0.00367644
9.84412e-07
-0.00368187
1.50498e-06
-0.00368455
2.00598e-06
-0.0036974
1.2033e-06
-0.00371421
2.68402e-06
-0.00372922
2.84634e-06
-0.00375659
-1.41292e-06
-0.00376027
-1.72832e-05
-0.00372366
-4.07538e-05
-0.00366715
-6.42925e-05
-0.00358601
-7.57808e-05
-0.00340029
-0.000165777
-0.00320859
-0.00017926
-0.00301598
-0.000191205
-0.00276185
-0.000236621
-0.00246587
-0.000282463
-0.0021509
-0.000297307
-0.00181114
-0.000321183
-0.00152493
-0.000284707
-0.00120584
-0.000316086
-0.000773427
-0.00042456
-0.000387644
-0.000387322
2.93786e-05
-0.000419498
0.000453763
-0.000429539
0.00083193
-0.000376785
0.00120603
-0.000372331
0.00156575
-0.000355451
0.00190077
-0.000332828
0.00221308
-0.000309031
0.00250552
-0.000289931
0.00277538
-0.000267191
0.00302569
-0.000247629
0.00325537
-0.000227813
0.00346517
-0.000208568
0.0036581
-0.000191348
0.00383592
-0.000175846
0.00399904
-0.000161106
0.00414609
-0.000146665
0.0042774
-0.000132252
0.00439696
-0.000120316
0.00450759
-0.000110354
0.00460964
-0.000101308
0.0047022
-9.25475e-05
0.00478712
-8.48843e-05
0.00486535
-7.80363e-05
0.00493884
-7.25482e-05
0.00500826
-6.78651e-05
0.00507488
-6.43079e-05
0.00513708
-6.06074e-05