/*--------------------------------*- C++ -*----------------------------------*\
| =========                 |                                                 |
| \\      /  F ield         | OpenFOAM: The Open Source CFD Toolbox           |
|  \\    /   O peration     | Version:  v2106                                 |
|   \\  /    A nd           | Website:  www.openfoam.com                      |
|    \\/     M anipulation  |                                                 |
\*---------------------------------------------------------------------------*/
FoamFile
{
    version     2.0;
    format      ascii;
    arch        "LSB;label=32;scalar=64";
    class       volScalarField;
    location    "20";
    object      T;
}
// * * * * * * * * * * * * * * * * * * * * * * * * * * * * * * * * * * * * * //

dimensions      [0 0 0 1 0 0 0];

internalField   nonuniform List<scalar> 
5250
(
1
1
1
1
1
1
1
1
1.00002
1.00016
1.00144
1.01339
1.10612
1.49047
2.76411
2.68957
2.55536
2.51242
2.53013
2.50717
2.48047
2.44833
2.40924
2.37754
2.36061
1
1
1
1
1
1
1
1
1.00002
1.00016
1.00141
1.01316
1.10433
1.48071
2.74257
2.6851
2.54495
2.49665
2.51562
2.49233
2.4671
2.43875
2.40361
2.37399
2.35777
1
1
1
1
1
1
1
1
1.00002
1.00015
1.00131
1.01227
1.09707
1.45935
2.70934
2.68694
2.52042
2.4628
2.48379
2.46419
2.44324
2.42014
2.39202
2.36511
2.34976
1
1
1
1
1
1
1
1
1.00002
1.00013
1.0012
1.0107
1.08453
1.42542
2.59093
2.69106
2.46835
2.41114
2.4388
2.42446
2.41153
2.39707
2.37721
2.35481
2.34054
1
1
1
1
1
1
1
1
1.00001
1.00011
1.001
1.0089
1.07174
1.37917
2.36092
2.70523
2.38707
2.33538
2.37189
2.36498
2.3659
2.3655
2.35637
2.34114
2.32776
1
1
1
1
1
1
1
1
1.00001
1.00008
1.00076
1.00665
1.05558
1.31695
2.03083
2.76919
2.29848
2.2497
2.29593
2.29776
2.30963
2.32723
2.33025
2.32242
2.31103
1
1
1
1
1
1
1
1
1.00001
1.00006
1.00057
1.00495
1.04357
1.26682
1.91992
2.93999
2.32049
2.25419
2.29148
2.28018
2.28018
2.28646
2.29384
2.29636
2.28705
1
1
1
1
1
1
1
1
1
1.00004
1.0004
1.00361
1.03332
1.2185
1.80717
3.12869
2.4623
2.31003
2.31949
2.29226
2.2823
2.27247
2.27003
2.26455
2.24888
1
1
1
1
1
1
1
1
1
1.00003
1.00031
1.00283
1.02592
1.18015
1.70373
3.1359
2.55051
2.40112
2.37627
2.32717
2.29367
2.25706
2.23036
2.22905
2.18746
1
1
1
1
1
1
1
1
1
1.00002
1.00023
1.00209
1.01936
1.14298
1.60496
3.02647
2.53806
2.49145
2.45656
2.40408
2.33469
2.26714
2.20736
2.18522
2.05105
1
1
1
1
1
1
1
1
1
1.00002
1.00017
1.00152
1.01411
1.10998
1.50274
2.83447
2.55507
2.47311
2.45208
2.42386
2.36883
2.28619
2.17546
2.05701
1.78843
1
1
1
1
1
1
1
1
1
1.00002
1.00013
1.00118
1.01032
1.07886
1.40287
2.62646
2.59519
2.4145
2.40447
2.40597
2.38512
2.31353
2.19589
2.06961
1.7047
1
1
1
1
1
1
1
1
1
1.00001
1.00007
1.00068
1.00573
1.04883
1.29383
2.07728
2.67965
2.29826
2.32481
2.36871
2.37208
2.32559
2.22284
2.0959
1.73882
1
1
1
1
1
1
1
1
1
1
1.00004
1.00037
1.00326
1.03162
1.21108
1.79126
2.86601
2.2859
2.25138
2.30369
2.3375
2.30473
2.22273
2.10967
1.81662
1
1
1
1
1
1
1
1
1
1
1.00003
1.00024
1.00219
1.02069
1.15131
1.61779
2.90798
2.28579
2.25563
2.2503
2.27773
2.26285
2.21155
2.12517
1.92702
1
1
1
1
1
1
1
1
1
1
1.00002
1.00015
1.00131
1.0121
1.09594
1.46406
2.79123
2.41279
2.21475
2.17187
2.19338
2.211
2.18718
2.12266
1.98722
1
1
1
1
1
1
1
1
1
1
1.00001
1.00008
1.00069
1.00626
1.0522
1.3209
2.47919
2.60083
2.23418
2.14117
2.15012
2.16502
2.15151
2.10854
2.01166
1
1
1
1
1
1
1
1
1
1
1.00001
1.00004
1.0004
1.00348
1.03078
1.20555
1.79101
2.83037
2.25824
2.17258
2.12439
2.12289
2.10957
2.07882
2.00854
1
1
1
1
1
1
1
1
1
1
1
1.00003
1.00022
1.00193
1.01667
1.11978
1.53907
2.7925
2.34258
2.20056
2.0993
2.08159
2.06406
2.04102
1.99308
1
1
1
1
1
1
1
1
1
1
1
1.00001
1.00008
1.00082
1.00704
1.06143
1.37869
2.55533
2.49097
2.18578
2.06784
2.05464
2.03779
2.01215
1.97092
1
1
1
1
1
1
1
1
1
1
1
1.00001
1.00005
1.00043
1.00358
1.02916
1.18684
1.8213
2.75359
2.2012
2.12975
2.04958
2.02387
1.99613
1.95605
1
1
1
1
1
1
1
1
1
1
1
1
1.00006
1.00004
1.00144
1.01138
1.09216
1.54403
2.63527
2.34294
2.11344
2.02792
2.00513
1.97787
1.94082
1
1
1
1
1
1
1
1
1
1
1
1
1.00001
1.00008
1.00066
1.00539
1.04241
1.25359
2.22848
2.57274
2.12499
2.0561
2.00473
1.96782
1.92727
1
1
1
1
1
1
1
1
1
1
1
1
1.00001
1.00007
1.0002
1.00189
1.00847
1.09267
1.70161
2.71288
2.2495
2.09203
1.99487
1.95668
1.91587
1
1
1
1
1
1
1
1
1
1
1
1
1
1.00001
1.00011
1.00092
1.0073
1.05617
1.31258
2.50961
2.4477
2.1001
2.01053
1.95708
1.91449
1
1
1
1
1
1
1
1
1
1
1
1
1
1.00001
1.0001
1.00008
1.00185
1.01364
1.11403
1.82734
2.71435
2.21178
2.06176
1.95585
1.91564
1
1
1
1
1
1
1
1
1
1
1
1
1
1
1.00002
1.00013
1.00105
1.00821
1.06212
1.33476
2.50808
2.39818
2.06042
1.97613
1.92232
1
1
1
1
1
1
1
1
1
1
1
1
1
1
1.00001
1.00009
1.00003
1.0019
1.01322
1.10578
1.82615
2.67726
2.18573
2.02333
1.92704
1
1
1
1
1
1
1
1
1
1
1
1
1
1
1
1.00002
1.00013
1.00104
1.00776
1.05943
1.33653
2.46592
2.38091
2.03791
1.96196
1
1
1
1
1
1
1
1
1
1
1
1
1
1
1
1.00001
1.00005
0.999944
1.00136
1.01155
1.09978
1.74746
2.62547
2.18747
2.00027
1
1
1
1
1
1
1
1
1
1
1
1
1
1
1
1
1.00001
1.00009
1.0008
1.00642
1.05048
1.30703
2.39268
2.38526
2.03708
1
1
1
1
1
1
1
1
1
1
1
1
1
1
1
1
1
1.00002
1.00017
1.00164
1.01209
1.09665
1.6268
2.54189
2.23989
1
1
1
1
1
1
1
1
1
1
1
1
1
1
1
1
1
1.00001
1.00008
1.00067
1.00526
1.04191
1.27195
2.2096
2.40685
1
1
1
1
1
1
1
1
1
1
1
1
1
1
1
1
1
1
1.00004
1.00002
1.00081
1.00805
1.07052
1.42728
2.328
1
1
1
1
1
1
1
1
1
1
1
1
1
1
1
1
1
1
1.00001
1.00006
1.00037
1.00286
1.01518
1.10873
1.77709
1
1
1
1
1
1
1
1
1
1
1
1
1
1
1
1
1
1
1
1.00001
1.00008
1.00073
1.00528
1.04768
1.30323
1
1
1
1
1
1
1
1
1
1
1
1
1
1
1
1
1
1
1
1
1.00003
1.00016
1.00132
1.00937
1.08071
1
1
1
1
1
1
1
1
1
1
1
1
1
1
1
1
1
1
1
1
1.00001
1.00006
1.00047
1.00312
1.02249
1
1
1
1
1
1
1
1
1
1
1
1
1
1
1
1
1
1
1
1
1
1.00002
1.00009
1.00073
1.00604
1
1
1
1
1
1
1
1
1
1
1
1
1
1
1
1
1
1
1
1
1
1.00001
1.00003
1.00013
1.00122
1
1
1
1
1
1
1
1
1
1
1
1
1
1
1
1
1
1
1
1
1
1
1.00001
1.00005
1.00008
1
1
1
1
1
1
1
1
1
1
1
1
1
1
1
1
1
1
1
1
1
1
1
1.00001
1.00008
1
1
1
1
1
1
1
1
1
1
1
1
1
1
1
1
1
1
1
1
1
1
1
1
1.00002
1
1
1
1
1
1
1
1
1
1
1
1
1
1
1
1
1
1
1
1
1
1
1
1
1
1
1
1
1
1
1
1
1
1
1
1
1
1
1
1
1
1
1
1
1
1
1
1
1
1
1
1
1
1
1
1
1
1
1
1
1
1
1
1
1
1
1
1
1
1
1
1
1
1
1
1
1
1
1
1
1
1
1
1
1
1
1
1
1
1
1
1
1
1
1
1
1
1
1
1
1
1
1
1
1
1
1
1
1
1
1
1
1
1
1
1
1
1
1
1
1
1
1
1
1
1
1
1
1
1
1
1
1
1
1
1
1
1
1
1
1
1
1
1
1
1
1
1
1
1
1
1
1
1
1
1
1
1
1
1
1
1
1
1
1
1
1
1
1
1
1
1
1
1
1
1.98003
2.2152
2.74584
2.70347
2.6778
2.72931
2.77306
2.78897
2.57204
2.48983
2.47788
2.48425
2.49024
2.49557
2.5216
2.46533
2.38682
2.3506
2.34172
2.3368
2.35083
2.35578
2.35713
2.35796
2.35727
2.35727
2.35437
2.34601
2.33998
2.33608
2.33428
2.32815
2.32651
2.33374
2.33792
2.37141
2.40488
2.43761
2.49168
2.53923
2.57603
2.60539
2.64689
2.67916
2.71179
2.7371
2.74431
2.74832
2.76141
2.76087
2.79514
2.77737
2.76661
2.75277
2.73909
2.72595
2.71173
2.69699
2.68234
2.66787
2.65429
2.64066
2.62712
2.61343
2.60044
2.58831
2.57691
2.56542
2.55368
2.54265
2.53189
2.52126
2.51049
2.49957
2.48834
2.47728
2.46645
2.4564
2.44651
2.43734
2.4282
2.41943
2.41061
2.40208
2.39351
2.38533
2.37712
2.3693
2.36137
2.35402
2.34662
2.34008
2.33346
2.32749
2.32115
2.31504
2.30867
2.29872
2.29855
2.30382
2.01508
2.16836
2.34584
2.58134
2.66831
2.78887
2.91276
3.09692
2.8902
2.80989
2.80385
2.85631
2.87514
2.89521
2.90915
2.83339
2.78306
2.75607
2.75909
2.76184
2.76578
2.76907
2.7696
2.76931
2.76817
2.76783
2.76678
2.76919
2.76079
2.75392
2.7511
2.74229
2.73793
2.74402
2.74336
2.76974
2.7939
2.81663
2.84693
2.8752
2.88912
2.88708
2.87813
2.88296
2.89795
2.87347
2.8541
2.83746
2.80401
2.77925
2.74895
2.70829
2.67483
2.64061
2.61129
2.58486
2.55654
2.52883
2.50579
2.48219
2.46134
2.44292
2.42516
2.40718
2.38838
2.37131
2.3574
2.34475
2.33207
2.32053
2.30999
2.29991
2.2898
2.27954
2.26886
2.25767
2.24595
2.23392
2.22186
2.21113
2.20102
2.19205
2.18343
2.17562
2.16796
2.16082
2.15368
2.14684
2.13993
2.13358
2.12732
2.12189
2.11669
2.11174
2.10657
2.1012
2.09553
2.08651
2.08555
2.09068
1.82888
1.97538
2.11522
2.34992
2.48279
2.59135
2.66099
2.81203
2.96631
2.99333
3.0293
3.00526
2.9915
3.02085
3.08919
3.15478
3.05193
2.99244
2.98183
2.97146
3.00019
3.01175
3.01354
3.01459
3.01516
3.01203
3.01042
3.00332
2.9987
2.99907
2.99914
2.99017
2.98454
2.98555
2.98416
2.99771
3.02204
3.02757
3.0874
3.08153
3.04988
3.0108
2.95173
2.88167
2.80316
2.72271
2.66362
2.59374
2.53977
2.48463
2.44425
2.40722
2.37347
2.3414
2.31927
2.30209
2.28444
2.26392
2.24571
2.22746
2.20948
2.19346
2.18025
2.16865
2.1574
2.14602
2.13545
2.12481
2.11383
2.10316
2.09321
2.08443
2.07639
2.06868
2.061
2.05325
2.04539
2.03743
2.02938
2.02119
2.01263
2.00367
1.99438
1.98613
1.97875
1.97247
1.96684
1.96151
1.95616
1.95114
1.94616
1.94142
1.93697
1.93262
1.92826
1.92374
1.91888
1.91121
1.90999
1.91544
1.71443
1.77449
1.85717
2.01339
2.20068
2.36369
2.39551
2.45769
2.59541
2.74571
2.84652
2.91551
2.9372
2.92912
2.93004
3.00941
3.0489
3.06474
3.08419
3.08342
3.07412
3.07011
3.04429
3.0249
3.03449
3.03871
3.04352
3.04811
3.04708
3.03917
3.03069
3.02473
3.02089
3.04541
3.07089
3.12515
3.12443
3.10406
3.03434
2.90796
2.74574
2.63185
2.55639
2.4639
2.41512
2.36306
2.31882
2.27439
2.25399
2.21707
2.20154
2.18517
2.16786
2.15038
2.13034
2.11972
2.10873
2.09686
2.08576
2.07475
2.06252
2.04936
2.03796
2.02787
2.01868
2.01075
2.00335
1.9959
1.9881
1.97997
1.97159
1.96342
1.95597
1.94905
1.94216
1.93529
1.92836
1.92178
1.91524
1.90867
1.90196
1.89495
1.88768
1.88015
1.87269
1.86587
1.86
1.85432
1.84902
1.84401
1.83937
1.83522
1.83164
1.82804
1.8244
1.82055
1.81629
1.80983
1.8072
1.81275
1.74332
1.71613
1.74416
1.82248
1.92395
2.0559
2.12969
2.10071
2.1933
2.33407
2.46159
2.59646
2.71397
2.74696
2.75414
2.76672
2.81436
2.87265
2.92346
2.97497
3.00128
3.00977
3.01812
3.01568
3.01503
3.01706
3.01938
3.02469
3.03128
3.03507
3.03015
3.02927
3.03652
3.05008
3.04303
2.99525
2.89343
2.74813
2.5756
2.46548
2.3477
2.30882
2.25889
2.19874
2.171
2.12407
2.09085
2.07172
2.07691
2.06302
2.05769
2.04925
2.03822
2.02755
2.0163
2.01184
2.00646
1.99939
1.98973
1.98198
1.97393
1.96507
1.95563
1.94613
1.93735
1.9303
1.92443
1.91836
1.91191
1.90498
1.89761
1.89093
1.88476
1.8786
1.87231
1.86585
1.85927
1.85252
1.8459
1.8399
1.83404
1.82809
1.822
1.81568
1.80914
1.80262
1.7969
1.79127
1.78587
1.78081
1.77627
1.77228
1.7687
1.76503
1.7613
1.75742
1.75323
1.74732
1.74392
1.74974
1.81232
1.72873
1.71602
1.74945
1.79486
1.85435
1.92057
1.88102
1.9522
2.06931
2.1751
2.26447
2.37003
2.44384
2.46253
2.49186
2.54406
2.60781
2.66658
2.74299
2.78313
2.82764
2.86398
2.89598
2.91655
2.9349
2.94599
2.9601
2.96689
2.97212
2.97976
2.98425
2.96556
2.92534
2.8479
2.71081
2.51318
2.34983
2.1924
2.12302
2.07137
2.05829
2.03737
2.02323
2.00533
1.97726
1.97216
1.97067
1.96083
1.95455
1.96225
1.96521
1.95967
1.9543
1.94768
1.94228
1.93854
1.93468
1.93024
1.92441
1.91609
1.90622
1.89946
1.89437
1.88885
1.88268
1.87599
1.86906
1.86281
1.85733
1.85177
1.84596
1.83981
1.8334
1.82686
1.8202
1.81402
1.80825
1.80256
1.79687
1.79112
1.78518
1.77907
1.77294
1.76746
1.76224
1.75704
1.75177
1.74649
1.74127
1.73621
1.73203
1.7283
1.72447
1.72055
1.71655
1.71226
1.70682
1.70217
1.70772
1.89035
1.7707
1.72582
1.71784
1.73144
1.7466
1.77125
1.73909
1.73651
1.78901
1.87374
1.94862
2.01806
2.08774
2.14138
2.17208
2.22387
2.28676
2.35049
2.41445
2.48166
2.54365
2.59727
2.65342
2.69421
2.73689
2.77283
2.80599
2.83005
2.85415
2.87294
2.86587
2.83093
2.74163
2.58085
2.35699
2.13368
1.999
1.90178
1.8519
1.84101
1.83068
1.83556
1.84932
1.87419
1.90827
1.95186
1.92976
1.90126
1.89661
1.89039
1.89279
1.90162
1.90952
1.906
1.89857
1.89635
1.8923
1.88842
1.88525
1.88082
1.87609
1.87015
1.86388
1.85619
1.85001
1.84511
1.84072
1.83591
1.8303
1.82396
1.81746
1.81129
1.80531
1.79931
1.79377
1.78811
1.78222
1.77612
1.76977
1.76378
1.75822
1.75283
1.74748
1.74245
1.73751
1.73254
1.72746
1.7223
1.71709
1.71201
1.70811
1.70436
1.70044
1.69634
1.69213
1.68758
1.68208
1.67642
1.68179
1.92344
1.83194
1.75968
1.72558
1.72655
1.71983
1.71102
1.688
1.65264
1.66009
1.7037
1.76342
1.81404
1.86812
1.90844
1.92456
1.92591
1.95966
2.01666
2.07131
2.13698
2.2127
2.26218
2.31882
2.37296
2.43594
2.49295
2.55098
2.59071
2.63055
2.7524
2.68273
2.57284
2.41773
2.21396
1.99258
1.87528
1.79485
1.73169
1.70224
1.68005
1.67267
1.6756
1.68683
1.709
1.74669
1.79239
1.8474
1.92068
1.89225
1.84719
1.84874
1.85118
1.86095
1.87855
1.87683
1.87536
1.87081
1.86048
1.86024
1.85936
1.8567
1.85068
1.84343
1.83515
1.83238
1.82953
1.82536
1.81966
1.81258
1.80581
1.80049
1.79537
1.78992
1.784
1.77785
1.77156
1.76544
1.7596
1.75396
1.74851
1.74309
1.73765
1.73211
1.7269
1.72196
1.717
1.71197
1.70687
1.70173
1.6965
1.69243
1.68848
1.6844
1.6802
1.67591
1.67131
1.66574
1.65986
1.6652
1.92679
1.86902
1.80768
1.76585
1.73496
1.7226
1.70678
1.6785
1.64277
1.60661
1.61233
1.63715
1.67171
1.70061
1.723
1.74954
1.73713
1.75126
1.78669
1.83559
1.87674
1.92778
1.97074
2.01274
2.05505
2.10249
2.15778
2.21906
2.28115
2.39115
2.50616
2.42238
2.29212
2.13405
1.93092
1.78811
1.73146
1.67741
1.64645
1.62339
1.59565
1.58199
1.57716
1.57789
1.59078
1.61636
1.64994
1.70045
1.76782
1.85965
1.89742
1.87062
1.84341
1.83202
1.83449
1.8448
1.857
1.85128
1.84876
1.84567
1.84244
1.83972
1.83538
1.83189
1.82786
1.82301
1.81773
1.81257
1.80718
1.80207
1.79666
1.79086
1.78486
1.77866
1.77277
1.76705
1.76151
1.75593
1.75026
1.74451
1.73881
1.73326
1.72774
1.72252
1.71763
1.71267
1.70751
1.70216
1.69666
1.69105
1.6858
1.68191
1.67816
1.67426
1.67022
1.66596
1.66129
1.65552
1.64915
1.65444
1.91748
1.87177
1.8215
1.79689
1.75622
1.73824
1.71407
1.68172
1.64356
1.60894
1.5781
1.5838
1.59683
1.61329
1.6264
1.63477
1.62652
1.62643
1.63548
1.65748
1.68921
1.71932
1.75463
1.7884
1.82161
1.8529
1.89128
1.94918
2.0462
2.29924
2.26963
2.17139
2.0683
1.93687
1.77541
1.70613
1.66581
1.63167
1.59758
1.56846
1.54807
1.54268
1.53199
1.52248
1.5278
1.53655
1.55131
1.58293
1.62522
1.68642
1.76837
1.89863
1.88238
1.82733
1.82565
1.82097
1.82106
1.82623
1.83547
1.83634
1.83476
1.83029
1.82244
1.81824
1.81618
1.81354
1.80965
1.80428
1.79772
1.79061
1.78605
1.78199
1.7772
1.77147
1.76549
1.75969
1.75385
1.74794
1.74203
1.73616
1.73077
1.72538
1.71993
1.71439
1.70872
1.70354
1.69862
1.69374
1.6889
1.68401
1.67964
1.67591
1.67209
1.66803
1.66372
1.65912
1.65401
1.64774
1.64071
1.64614
1.90487
1.86787
1.83067
1.80493
1.77832
1.758
1.72929
1.69611
1.65829
1.61917
1.58458
1.56652
1.5703
1.58367
1.58491
1.58594
1.58294
1.57658
1.56581
1.57008
1.58377
1.6056
1.62709
1.64997
1.67443
1.69983
1.74118
1.80325
1.95261
2.21439
2.09242
2.02628
1.93953
1.82052
1.72253
1.67836
1.64052
1.61019
1.5766
1.54986
1.52549
1.51275
1.50342
1.49948
1.5009
1.49997
1.49981
1.51225
1.52855
1.56533
1.62011
1.70218
1.80018
1.91387
1.87701
1.84175
1.80195
1.81197
1.81295
1.8234
1.82258
1.82003
1.81609
1.81095
1.8057
1.80123
1.79574
1.78911
1.78476
1.78067
1.77583
1.77115
1.76617
1.76041
1.75331
1.74793
1.74325
1.73844
1.7334
1.72803
1.72235
1.71649
1.71043
1.70424
1.69888
1.69443
1.69016
1.68589
1.68159
1.67723
1.67321
1.66941
1.66547
1.66132
1.65695
1.65233
1.64723
1.64099
1.63391
1.63964
1.89154
1.85665
1.82562
1.80145
1.78534
1.76493
1.74443
1.71774
1.6822
1.63771
1.60302
1.57119
1.56059
1.56454
1.5674
1.56665
1.56103
1.54715
1.53961
1.52579
1.52621
1.53525
1.5511
1.56508
1.58282
1.6116
1.65955
1.75995
1.94771
2.1071
2.00248
1.95482
1.87995
1.77994
1.73821
1.69634
1.6557
1.61681
1.58261
1.5583
1.53651
1.51425
1.49711
1.48512
1.48478
1.48491
1.48123
1.4823
1.48539
1.49981
1.52638
1.56919
1.63117
1.71472
1.86077
1.87148
1.81584
1.80569
1.78544
1.78955
1.79108
1.79624
1.79453
1.79235
1.78672
1.78313
1.77938
1.77577
1.77109
1.7651
1.75809
1.75313
1.74793
1.74247
1.73702
1.73143
1.72685
1.72224
1.7173
1.71207
1.70677
1.70147
1.69622
1.69103
1.68641
1.68248
1.6786
1.67467
1.6707
1.6667
1.66283
1.659
1.65506
1.65098
1.64671
1.64223
1.63729
1.63117
1.62424
1.63035
1.8827
1.84555
1.81664
1.79596
1.78233
1.76451
1.75124
1.72979
1.69915
1.66375
1.62846
1.59366
1.56461
1.55935
1.56144
1.55781
1.55112
1.54393
1.53264
1.51124
1.5
1.49969
1.50809
1.52163
1.54107
1.57634
1.6571
1.81693
2.1293
2.02553
1.96573
1.90886
1.83902
1.79313
1.75255
1.71072
1.67346
1.64454
1.6159
1.59176
1.56701
1.54634
1.53242
1.51687
1.49925
1.47936
1.46757
1.46914
1.47369
1.47773
1.47962
1.48793
1.50911
1.5556
1.63049
1.72504
1.86791
1.84119
1.79156
1.76833
1.75558
1.75928
1.76401
1.76681
1.76451
1.76195
1.7569
1.7504
1.74859
1.74548
1.74092
1.73527
1.72929
1.72296
1.7179
1.71289
1.7078
1.70254
1.69691
1.69182
1.6874
1.68291
1.67832
1.6737
1.66915
1.66544
1.66178
1.65804
1.65425
1.65046
1.64672
1.64299
1.63919
1.63526
1.63115
1.62676
1.62184
1.61565
1.60857
1.61488
1.87594
1.84135
1.80753
1.78806
1.77251
1.75935
1.74791
1.73034
1.70887
1.6835
1.64989
1.61741
1.59169
1.56462
1.56049
1.5586
1.55413
1.5446
1.52996
1.51684
1.50513
1.48522
1.48994
1.50475
1.53267
1.59742
1.73113
2.04354
2.03467
1.94674
1.91157
1.87508
1.83589
1.80181
1.76549
1.72641
1.69826
1.67032
1.64483
1.61986
1.59506
1.57741
1.55911
1.53879
1.51722
1.50195
1.49074
1.47572
1.46781
1.45653
1.45643
1.45227
1.45129
1.46724
1.50152
1.55408
1.64082
1.7452
1.85001
1.81105
1.78484
1.73875
1.74716
1.74995
1.75392
1.75306
1.7507
1.74327
1.73465
1.73144
1.72768
1.72398
1.7198
1.71469
1.70774
1.7027
1.69942
1.69582
1.69182
1.68733
1.68253
1.67757
1.67245
1.66722
1.66206
1.65773
1.65354
1.64928
1.64498
1.64068
1.63639
1.63212
1.62783
1.62349
1.61905
1.61442
1.60932
1.60298
1.59577
1.6023
1.87166
1.83972
1.80362
1.78155
1.76758
1.75076
1.73919
1.72728
1.71146
1.69027
1.66482
1.63503
1.61181
1.58868
1.56603
1.56272
1.55676
1.54659
1.537
1.52615
1.50692
1.49296
1.50187
1.51419
1.55944
1.6739
1.89651
2.02545
1.93787
1.91312
1.8911
1.86741
1.84123
1.8134
1.78357
1.75221
1.72425
1.69699
1.67192
1.64513
1.62337
1.60351
1.58201
1.55905
1.54365
1.52842
1.5095
1.49047
1.47042
1.45072
1.43639
1.43188
1.4318
1.43457
1.44169
1.45666
1.50373
1.57485
1.67209
1.8391
1.82791
1.77499
1.76027
1.72982
1.73482
1.73779
1.73935
1.73825
1.73474
1.7238
1.7207
1.71811
1.71433
1.70947
1.70375
1.69729
1.69288
1.68994
1.68634
1.68202
1.67723
1.67209
1.66652
1.66038
1.65482
1.65044
1.64644
1.6425
1.63865
1.63475
1.63075
1.6266
1.62227
1.61781
1.6132
1.60839
1.60309
1.59655
1.58905
1.59575
1.8737
1.84108
1.80424
1.77746
1.76569
1.7494
1.73285
1.7231
1.70823
1.68949
1.66882
1.64527
1.61731
1.60537
1.58542
1.56479
1.55922
1.5541
1.54602
1.53218
1.5105
1.51298
1.5231
1.5547
1.64296
1.80715
2.01698
1.95142
1.89364
1.88753
1.87764
1.86395
1.84618
1.82511
1.80135
1.77513
1.74737
1.72107
1.69481
1.66765
1.6463
1.62362
1.59821
1.5813
1.56463
1.5445
1.52302
1.50337
1.48259
1.46912
1.4543
1.43731
1.42554
1.4183
1.42436
1.42468
1.43654
1.46495
1.52303
1.6044
1.70219
1.84025
1.80687
1.76963
1.71233
1.71019
1.71767
1.72509
1.72466
1.72357
1.71991
1.71247
1.70501
1.69929
1.69473
1.6908
1.68668
1.68219
1.67862
1.67528
1.67133
1.66679
1.66188
1.65663
1.65046
1.64572
1.64198
1.63805
1.63399
1.62979
1.62546
1.62108
1.61659
1.61207
1.60746
1.60265
1.59732
1.59071
1.58299
1.58977
1.87868
1.84337
1.80716
1.77297
1.76317
1.74986
1.72958
1.7187
1.70575
1.68963
1.67026
1.64746
1.62372
1.60905
1.59436
1.56932
1.56127
1.55763
1.54833
1.53743
1.53816
1.54152
1.56036
1.63189
1.7818
2.02289
1.96181
1.89344
1.88704
1.88132
1.8747
1.86526
1.85127
1.83336
1.81223
1.78845
1.76386
1.73873
1.71284
1.68752
1.66534
1.63869
1.61806
1.5989
1.57713
1.55535
1.53411
1.51709
1.50145
1.48554
1.46904
1.45313
1.441
1.42737
1.42153
1.41255
1.41845
1.41894
1.43785
1.47412
1.53701
1.62849
1.77396
1.79825
1.74896
1.73582
1.68986
1.69195
1.70001
1.70983
1.70945
1.70819
1.70112
1.69355
1.68701
1.68393
1.68118
1.67813
1.67384
1.67006
1.66685
1.66307
1.65875
1.65396
1.64851
1.64224
1.63694
1.6328
1.62864
1.6244
1.62015
1.61588
1.61147
1.60693
1.60213
1.59701
1.59133
1.5844
1.57625
1.58337
1.88816
1.85071
1.81455
1.77454
1.76298
1.75176
1.72969
1.71762
1.70653
1.69118
1.67217
1.64824
1.62464
1.60976
1.59541
1.57592
1.56111
1.54574
1.5473
1.55322
1.56089
1.57827
1.63777
1.76852
2.02612
1.9682
1.90497
1.87626
1.87394
1.87118
1.86679
1.85987
1.84966
1.83524
1.81725
1.79567
1.77313
1.74804
1.72181
1.70025
1.67625
1.6504
1.63261
1.61086
1.58799
1.56438
1.54883
1.53291
1.51629
1.4997
1.4823
1.4676
1.45255
1.43946
1.42508
1.40943
1.40131
1.40228
1.40775
1.41844
1.44134
1.48956
1.56283
1.64941
1.79316
1.77546
1.73511
1.70987
1.6787
1.68296
1.69035
1.69496
1.69379
1.68933
1.68211
1.67342
1.67173
1.67
1.6668
1.66271
1.65915
1.65532
1.6511
1.64606
1.64006
1.6333
1.62879
1.62548
1.62197
1.61821
1.61435
1.61033
1.60604
1.60146
1.59647
1.59104
1.58491
1.57753
1.56901
1.57635
1.90577
1.861
1.81917
1.77629
1.75969
1.75401
1.73319
1.71463
1.70843
1.69545
1.67658
1.6518
1.62621
1.60917
1.5947
1.57891
1.55684
1.54383
1.55183
1.56549
1.58578
1.64396
1.76502
2.00595
1.97479
1.91759
1.88221
1.87256
1.86919
1.86405
1.85777
1.85054
1.84192
1.83106
1.81712
1.79939
1.77766
1.75341
1.72785
1.70458
1.67791
1.66146
1.64127
1.6183
1.59619
1.57909
1.56223
1.54424
1.52581
1.51068
1.49428
1.47738
1.46329
1.44845
1.43384
1.42118
1.40623
1.39986
1.40122
1.40316
1.40516
1.41936
1.44538
1.49546
1.57931
1.67324
1.77497
1.74359
1.71476
1.6719
1.66585
1.67211
1.67818
1.68048
1.67864
1.67363
1.66552
1.65822
1.65754
1.656
1.65347
1.65017
1.64602
1.64051
1.63353
1.62585
1.62205
1.61851
1.61476
1.61088
1.60695
1.6029
1.59855
1.59381
1.58862
1.58308
1.577
1.56973
1.5611
1.56883
1.91064
1.87373
1.83247
1.78773
1.75373
1.75048
1.73628
1.71421
1.70747
1.69663
1.67986
1.65663
1.62973
1.61443
1.59764
1.57872
1.54735
1.55136
1.56426
1.5815
1.63643
1.75271
1.99821
1.9948
1.93431
1.89866
1.8822
1.87222
1.86187
1.85345
1.84497
1.8367
1.82815
1.81821
1.80602
1.79137
1.77362
1.75417
1.7328
1.70921
1.68753
1.66623
1.64457
1.62334
1.60739
1.59043
1.57198
1.55266
1.536
1.51926
1.50441
1.48916
1.47342
1.45827
1.44462
1.43009
1.4166
1.40753
1.3995
1.39128
1.39055
1.39203
1.39504
1.41275
1.44989
1.50556
1.59421
1.72419
1.75326
1.7082
1.69837
1.66297
1.66597
1.67577
1.67651
1.6752
1.66763
1.65623
1.65263
1.65151
1.64989
1.64768
1.64434
1.63882
1.63123
1.62234
1.61686
1.61293
1.60901
1.60507
1.60113
1.5971
1.59274
1.58793
1.58279
1.57715
1.57085
1.56322
1.5542
1.56241
1.97299
1.89161
1.84778
1.79999
1.75678
1.74685
1.73718
1.71534
1.70629
1.69432
1.67943
1.66007
1.63454
1.61662
1.60719
1.58732
1.55841
1.56484
1.58141
1.62923
1.73509
1.96025
1.99971
1.92987
1.90548
1.88572
1.872
1.85844
1.84719
1.83806
1.82892
1.82055
1.81275
1.80472
1.7957
1.78482
1.77155
1.75539
1.73733
1.71729
1.69712
1.67494
1.65441
1.63547
1.61634
1.59702
1.58091
1.56353
1.54804
1.53149
1.5174
1.50246
1.48616
1.47147
1.45983
1.44707
1.43896
1.42876
1.41776
1.40668
1.39361
1.3886
1.38008
1.3822
1.38729
1.4058
1.45405
1.5314
1.61834
1.77103
1.74536
1.70762
1.67514
1.64461
1.64762
1.65648
1.65588
1.65201
1.64652
1.64295
1.6417
1.63993
1.63726
1.63271
1.62617
1.61698
1.60966
1.60616
1.60251
1.59862
1.59468
1.59071
1.58656
1.58165
1.57636
1.57064
1.56439
1.55676
1.54772
1.55603
1.98069
1.91203
1.85808
1.81594
1.76962
1.74066
1.73577
1.71648
1.70074
1.69544
1.68299
1.66519
1.63949
1.61955
1.61358
1.59823
1.58903
1.59544
1.62534
1.72061
1.91549
2.008
1.92945
1.91546
1.895
1.87545
1.86108
1.85122
1.84059
1.82928
1.81937
1.81193
1.80416
1.79624
1.78785
1.77848
1.76752
1.75478
1.73983
1.72307
1.70461
1.68529
1.66544
1.64593
1.62611
1.60893
1.59192
1.57576
1.55995
1.54364
1.52845
1.51294
1.49789
1.48256
1.46735
1.45853
1.44898
1.43797
1.42608
1.41374
1.40127
1.38897
1.37551
1.37463
1.36816
1.36815
1.37346
1.4095
1.47177
1.56505
1.71279
1.74222
1.69472
1.6782
1.63475
1.63172
1.63647
1.64151
1.64099
1.6396
1.63757
1.63412
1.62904
1.62288
1.61618
1.60761
1.6015
1.59859
1.59544
1.59193
1.58826
1.58434
1.58041
1.57572
1.57041
1.5646
1.55807
1.54997
1.54044
1.54879
2.04856
1.95596
1.86081
1.82627
1.78982
1.74849
1.73476
1.72016
1.6954
1.69103
1.68583
1.67185
1.6477
1.61811
1.61706
1.61897
1.62483
1.64669
1.72571
1.86942
2.01532
1.93542
1.92983
1.91233
1.88818
1.87147
1.86097
1.85007
1.83824
1.82639
1.815
1.80631
1.79767
1.78922
1.78086
1.77223
1.76303
1.75249
1.74047
1.72631
1.71052
1.69325
1.67501
1.65594
1.63733
1.61933
1.60236
1.58623
1.57054
1.55515
1.53964
1.52393
1.50773
1.49056
1.47541
1.46418
1.45037
1.43965
1.42922
1.41885
1.40708
1.39471
1.38294
1.37032
1.35531
1.34907
1.34875
1.35796
1.386
1.43655
1.50562
1.59573
1.74327
1.71931
1.67718
1.65039
1.61749
1.61905
1.62577
1.62532
1.62488
1.62396
1.62088
1.61549
1.60677
1.59639
1.594
1.59179
1.58928
1.58622
1.58271
1.57856
1.57435
1.56953
1.56375
1.55766
1.55108
1.54273
1.53242
1.54066
2.20039
1.92896
1.89341
1.83998
1.80587
1.76329
1.73745
1.72696
1.70199
1.6886
1.68629
1.67556
1.65723
1.62594
1.62998
1.64779
1.67375
1.74877
1.88186
2.02568
1.94143
1.9403
1.92682
1.90159
1.89117
1.87948
1.86661
1.85244
1.83712
1.82483
1.81332
1.80254
1.79331
1.78432
1.77582
1.76711
1.758
1.7484
1.73779
1.72593
1.71249
1.69778
1.68168
1.66495
1.64745
1.62971
1.61341
1.59744
1.58173
1.56621
1.55041
1.5346
1.51902
1.50338
1.49066
1.4773
1.46591
1.45377
1.44207
1.43164
1.41979
1.40708
1.3943
1.38096
1.36708
1.34684
1.3464
1.34689
1.35175
1.36755
1.39828
1.45039
1.53083
1.63725
1.7061
1.67151
1.64982
1.62007
1.60448
1.60703
1.61326
1.61463
1.61392
1.61106
1.60407
1.59119
1.58372
1.58286
1.58148
1.57933
1.57636
1.57202
1.56744
1.5627
1.55682
1.55037
1.5438
1.53551
1.5243
1.53251
2.47445
2.09005
1.91297
1.85565
1.81748
1.78319
1.74879
1.73854
1.7202
1.69397
1.68837
1.68164
1.66594
1.64867
1.65987
1.68637
1.76889
1.90846
2.05637
1.96078
1.95514
1.93841
1.91243
1.90604
1.89579
1.88284
1.8676
1.85068
1.83691
1.82447
1.81213
1.80068
1.78927
1.7801
1.77119
1.7626
1.75371
1.74467
1.7352
1.72489
1.7136
1.70072
1.68676
1.67148
1.65571
1.63916
1.62272
1.60686
1.59072
1.57523
1.55895
1.54264
1.52497
1.51076
1.49655
1.48331
1.47273
1.46188
1.44949
1.43635
1.42356
1.41082
1.39907
1.38594
1.37159
1.35913
1.3449
1.34227
1.33942
1.34293
1.35063
1.36993
1.41317
1.47977
1.55661
1.6943
1.68463
1.64299
1.62689
1.59696
1.59758
1.60268
1.60527
1.6042
1.59958
1.59161
1.58001
1.57494
1.57449
1.57308
1.57019
1.56577
1.56006
1.55465
1.54856
1.54121
1.53445
1.52699
1.51556
1.52342
2.273
2.26763
1.97417
1.90044
1.82532
1.79672
1.76461
1.74132
1.73211
1.70839
1.68357
1.68385
1.67898
1.68308
1.70301
1.77779
1.92256
2.09482
1.99387
1.98417
1.9572
1.91902
1.91505
1.90782
1.89801
1.88497
1.86879
1.85315
1.83873
1.82498
1.81248
1.80064
1.78945
1.77889
1.76878
1.75986
1.75118
1.74188
1.73223
1.72223
1.71139
1.69973
1.687
1.67322
1.65862
1.64346
1.62812
1.61256
1.59695
1.58134
1.5655
1.54942
1.53283
1.516
1.49925
1.48606
1.47487
1.46425
1.45232
1.43988
1.42725
1.41461
1.40153
1.38728
1.37068
1.36077
1.3537
1.34497
1.33447
1.33118
1.33745
1.34092
1.35574
1.38242
1.43083
1.5023
1.58817
1.68449
1.65855
1.62499
1.60589
1.58383
1.58502
1.58891
1.5882
1.58577
1.57947
1.57222
1.56802
1.56347
1.55991
1.55543
1.54981
1.54386
1.53809
1.53193
1.52482
1.51634
1.5046
1.51285
1.5275
2.31107
2.15076
1.89572
1.85915
1.80731
1.7703
1.74103
1.73118
1.71381
1.68964
1.69385
1.70544
1.7298
1.80189
1.94156
2.11922
2.01969
2.01157
1.98252
1.93839
1.93368
1.92582
1.91553
1.90285
1.88796
1.87428
1.86025
1.84594
1.83199
1.81811
1.80441
1.79089
1.77819
1.76641
1.75523
1.7456
1.7359
1.726
1.71566
1.70494
1.69372
1.68201
1.66998
1.6577
1.64502
1.6316
1.61757
1.60269
1.58754
1.57187
1.55575
1.53887
1.52092
1.50607
1.4941
1.48233
1.47005
1.45809
1.44606
1.43385
1.42126
1.4081
1.39378
1.37984
1.37032
1.3617
1.35255
1.34428
1.33333
1.33144
1.33679
1.33659
1.34038
1.36154
1.39692
1.45237
1.52579
1.66125
1.66047
1.62691
1.61415
1.59453
1.57341
1.57396
1.5772
1.57562
1.57211
1.56492
1.55721
1.54949
1.54284
1.53791
1.53267
1.52706
1.52112
1.51444
1.50601
1.49293
1.50193
1.16524
1.73395
2.39179
2.07988
1.87811
1.82332
1.77026
1.74375
1.72381
1.70059
1.70168
1.71431
1.74345
1.82773
1.97573
2.15703
2.04943
2.03943
2.00833
1.96524
1.9592
1.94896
1.93642
1.92229
1.90685
1.8934
1.8797
1.86553
1.85101
1.83609
1.82093
1.80565
1.79079
1.77634
1.76283
1.75027
1.73925
1.7294
1.71916
1.70841
1.69719
1.68617
1.67528
1.66416
1.65284
1.64122
1.62899
1.61604
1.60234
1.58794
1.57284
1.55659
1.5388
1.52176
1.5086
1.4964
1.48442
1.4728
1.46193
1.45084
1.43902
1.42671
1.41375
1.39931
1.38748
1.37706
1.36875
1.36279
1.35589
1.34844
1.34019
1.33479
1.32955
1.32917
1.33497
1.34748
1.37281
1.41419
1.47887
1.55982
1.68057
1.65904
1.62175
1.60319
1.56745
1.56704
1.56815
1.56503
1.55934
1.54982
1.54238
1.53332
1.52871
1.52543
1.5215
1.5169
1.51116
1.50277
1.48614
1.49473
1.04787
1.29935
2.27814
2.2844
1.98495
1.87553
1.78446
1.74716
1.70847
1.70412
1.71978
1.74601
1.83515
2.00204
2.20363
2.09061
2.07126
2.03284
1.98842
1.98162
1.97044
1.95661
1.94036
1.92243
1.90884
1.89549
1.88165
1.86735
1.85249
1.83723
1.82162
1.80583
1.79011
1.77465
1.7598
1.74532
1.73217
1.72029
1.70925
1.69809
1.68678
1.67569
1.66561
1.65531
1.64503
1.63482
1.62454
1.61376
1.60224
1.58989
1.57656
1.56205
1.54613
1.52952
1.51654
1.50515
1.49383
1.48239
1.47099
1.45935
1.44755
1.43534
1.42276
1.40952
1.40088
1.39383
1.38629
1.37874
1.37011
1.3639
1.35717
1.34901
1.34546
1.33817
1.34101
1.34273
1.34606
1.35845
1.38615
1.43817
1.52614
1.6738
1.68022
1.63315
1.61266
1.5866
1.55767
1.55678
1.55543
1.551
1.54475
1.53812
1.52997
1.52636
1.52283
1.51788
1.51121
1.50037
1.47953
1.48835
1.00971
1.07715
1.41149
2.16966
2.08224
1.84746
1.79822
1.74712
1.71576
1.72562
1.75103
1.84046
2.01147
2.23183
2.11942
2.09259
2.04317
2.00751
2.00122
1.99051
1.97754
1.9614
1.94342
1.92559
1.90878
1.8928
1.87717
1.86161
1.84617
1.83058
1.81485
1.79893
1.7829
1.76729
1.75183
1.7375
1.72338
1.71157
1.70091
1.69025
1.67916
1.66756
1.65716
1.64891
1.64056
1.63182
1.62278
1.61321
1.60302
1.59197
1.5798
1.56635
1.55161
1.53596
1.52361
1.51238
1.50118
1.49006
1.47887
1.46764
1.45625
1.4449
1.43312
1.42236
1.41537
1.40911
1.40213
1.39479
1.38717
1.38136
1.37528
1.3712
1.36655
1.36151
1.35639
1.34749
1.34821
1.34856
1.35661
1.37698
1.43474
1.51075
1.59468
1.69763
1.67396
1.6343
1.60984
1.57928
1.55803
1.55603
1.55632
1.5519
1.54359