/*--------------------------------*- C++ -*----------------------------------*\
| =========                 |                                                 |
| \\      /  F ield         | OpenFOAM: The Open Source CFD Toolbox           |
|  \\    /   O peration     | Version:  v2106                                 |
|   \\  /    A nd           | Website:  www.openfoam.com                      |
|    \\/     M anipulation  |                                                 |
\*---------------------------------------------------------------------------*/
FoamFile
{
    version     2.0;
    format      ascii;
    arch        "LSB;label=32;scalar=64";
    class       volVectorField;
    location    "20";
    object      U;
}
// * * * * * * * * * * * * * * * * * * * * * * * * * * * * * * * * * * * * * //

dimensions      [0 1 -1 0 0 0 0];

internalField   nonuniform List<vector> 
5250
(
(3 -7.01912e-14 0)
(3 4.75213e-13 0)
(3 -1.28106e-12 0)
(3 -3.25105e-11 0)
(3 1.82497e-11 0)
(3 -8.05727e-10 0)
(3 2.08643e-09 0)
(3 6.54485e-09 0)
(3.00001 -2.78206e-08 0)
(2.99995 9.09009e-07 0)
(3.00052 -1.83185e-06 0)
(2.99896 5.0121e-05 0)
(3.02845 0.000115889 0)
(3.01864 0.00276488 0)
(2.45801 0.00737435 0)
(0.699089 0.0376658 0)
(0.48834 0.0186512 0)
(0.525262 0.0249087 0)
(0.460409 0.0275371 0)
(0.381992 0.0335027 0)
(0.326766 0.0260826 0)
(0.248274 0.0270809 0)
(0.179283 0.0294198 0)
(0.101872 0.0314774 0)
(0.0379982 0.0304922 0)
(3 -1.34736e-14 0)
(3 6.58001e-13 0)
(3 1.03585e-13 0)
(3 3.79498e-11 0)
(3 2.38991e-10 0)
(3 -3.23966e-09 0)
(3 1.26451e-08 0)
(3 -8.54832e-08 0)
(3.00001 4.78506e-07 0)
(2.99994 -1.27142e-06 0)
(3.0006 2.08236e-05 0)
(2.9985 9.16244e-05 0)
(3.03069 0.0014067 0)
(3.02219 0.0107317 0)
(2.47114 0.0274677 0)
(0.711383 0.11635 0)
(0.471363 0.0525168 0)
(0.519827 0.0638206 0)
(0.452721 0.0657556 0)
(0.374419 0.0669507 0)
(0.317032 0.085816 0)
(0.23897 0.0911443 0)
(0.173157 0.0913927 0)
(0.102373 0.0856765 0)
(0.0364208 0.0863009 0)
(3 1.32359e-13 0)
(3 1.87001e-13 0)
(3 3.27116e-12 0)
(3 1.97031e-11 0)
(3 1.57146e-09 0)
(3 -2.26021e-09 0)
(3 4.36885e-08 0)
(3 -9.23715e-08 0)
(3 9.19823e-07 0)
(2.99999 -1.59493e-06 0)
(3.00034 3.5181e-05 0)
(2.99956 0.000114498 0)
(3.02527 -0.00382569 0)
(3.02413 0.015665 0)
(2.49672 0.052771 0)
(0.753443 0.206669 0)
(0.441391 0.0886639 0)
(0.510879 0.113346 0)
(0.437151 0.119256 0)
(0.35356 0.135405 0)
(0.303413 0.138394 0)
(0.235595 0.142366 0)
(0.178571 0.141468 0)
(0.104139 0.144479 0)
(0.0394558 0.145735 0)
(3 -8.5594e-14 0)
(3 1.65333e-13 0)
(3 -1.02568e-12 0)
(3 9.00522e-12 0)
(3 -2.39371e-11 0)
(3 4.36152e-10 0)
(3 5.07305e-09 0)
(3 1.74951e-08 0)
(3 4.6431e-07 0)
(3.00001 1.13123e-06 0)
(3.00011 3.11385e-05 0)
(3.00078 0.000300807 0)
(3.0112 -0.00024027 0)
(3.03883 0.0286794 0)
(2.55081 0.0778249 0)
(0.835076 0.309171 0)
(0.396206 0.127688 0)
(0.499419 0.156318 0)
(0.418319 0.169178 0)
(0.351717 0.171721 0)
(0.305088 0.184117 0)
(0.243464 0.191873 0)
(0.180931 0.201324 0)
(0.11216 0.201884 0)
(0.0373319 0.207358 0)
(3 3.19603e-13 0)
(3 -3.80595e-13 0)
(3 2.18167e-12 0)
(3 -3.28987e-12 0)
(3 1.68814e-10 0)
(3 -8.69783e-11 0)
(3 9.73742e-09 0)
(3 6.53412e-09 0)
(3 6.26216e-07 0)
(3.00001 2.91975e-06 0)
(3.00008 3.92663e-05 0)
(3.00076 0.00038245 0)
(3.00857 0.00215778 0)
(3.05382 0.0335198 0)
(2.62875 0.102278 0)
(0.978396 0.426129 0)
(0.362241 0.180347 0)
(0.506425 0.199163 0)
(0.423355 0.209902 0)
(0.357037 0.219586 0)
(0.31399 0.229749 0)
(0.251357 0.242944 0)
(0.196193 0.250971 0)
(0.115133 0.265469 0)
(0.0461389 0.272066 0)
(3 -3.28838e-15 0)
(3 1.38133e-13 0)
(3 1.28829e-12 0)
(3 2.18347e-12 0)
(3 6.15277e-11 0)
(3 6.306e-10 0)
(3 8.55113e-09 0)
(3 2.56863e-09 0)
(3 7.86239e-07 0)
(3.00001 -2.81721e-06 0)
(3.00004 5.48399e-05 0)
(3.00082 7.15004e-05 0)
(3.00444 0.00372113 0)
(3.06757 0.0321334 0)
(2.73025 0.0888254 0)
(1.22774 0.53179 0)
(0.351267 0.228584 0)
(0.528925 0.240887 0)
(0.444322 0.255808 0)
(0.373874 0.25871 0)
(0.326593 0.277174 0)
(0.270749 0.290834 0)
(0.201349 0.318114 0)
(0.13736 0.32936 0)
(0.0419645 0.345743 0)
(3 -3.50513e-13 0)
(3 3.9708e-13 0)
(3 1.04078e-12 0)
(3 4.26914e-12 0)
(3 1.08354e-10 0)
(3 3.09479e-10 0)
(3 7.7846e-09 0)
(3 3.23039e-08 0)
(3 6.80979e-07 0)
(3.00001 4.26808e-07 0)
(3.00004 5.90981e-05 0)
(3.0006 -0.000335036 0)
(3.00199 0.00311092 0)
(3.06797 0.0255507 0)
(2.81244 0.0495686 0)
(1.60609 0.61539 0)
(0.374986 0.301141 0)
(0.563305 0.288693 0)
(0.484611 0.301422 0)
(0.396474 0.30989 0)
(0.358804 0.318325 0)
(0.29174 0.345369 0)
(0.245986 0.364466 0)
(0.145629 0.403958 0)
(0.0674234 0.427976 0)
(3 -3.26331e-14 0)
(3 1.91074e-13 0)
(3 -9.03114e-13 0)
(3 2.64431e-12 0)
(3 -6.54348e-11 0)
(3 -2.0466e-10 0)
(3 9.11577e-09 0)
(3 2.52973e-08 0)
(3 5.70401e-07 0)
(3.00001 2.75872e-06 0)
(2.99998 3.6489e-05 0)
(3.00075 0.000256456 0)
(3.00008 0.00243311 0)
(3.06393 0.0203902 0)
(2.87301 0.0275693 0)
(2.02521 0.611841 0)
(0.469379 0.404002 0)
(0.623995 0.351458 0)
(0.551636 0.355374 0)
(0.452925 0.357602 0)
(0.394975 0.371812 0)
(0.342132 0.392694 0)
(0.251667 0.450287 0)
(0.17842 0.487552 0)
(0.070206 0.533874 0)
(3 -2.86858e-14 0)
(3 7.94927e-14 0)
(3 -8.73814e-13 0)
(3 2.64491e-12 0)
(3 -6.40332e-11 0)
(3 -5.13009e-11 0)
(3 5.63296e-09 0)
(3 1.48924e-08 0)
(3 3.06812e-07 0)
(3.00002 1.81251e-06 0)
(2.99993 2.20183e-05 0)
(3.0009 0.000176188 0)
(2.99887 0.00174509 0)
(3.0552 0.0163944 0)
(2.92234 0.0421872 0)
(2.23855 0.49388 0)
(0.609979 0.480776 0)
(0.68941 0.429271 0)
(0.634156 0.420062 0)
(0.525656 0.430175 0)
(0.469266 0.418127 0)
(0.381927 0.4657 0)
(0.33083 0.509769 0)
(0.231894 0.566785 0)
(0.146953 0.657931 0)
(3 3.42102e-14 0)
(3 -6.13947e-15 0)
(3 1.59889e-12 0)
(3 4.75362e-12 0)
(3 1.17632e-10 0)
(3 7.87603e-10 0)
(3 2.22432e-09 0)
(3 2.8637e-08 0)
(3 1.61066e-07 0)
(3.00002 2.12345e-06 0)
(2.99993 1.57653e-05 0)
(3.00077 0.000167094 0)
(2.99853 0.00142219 0)
(3.04397 0.0139995 0)
(2.97269 0.0633373 0)
(2.39337 0.380418 0)
(0.696765 0.546837 0)
(0.737384 0.485417 0)
(0.707248 0.481929 0)
(0.62549 0.4948 0)
(0.544895 0.499284 0)
(0.453606 0.534247 0)
(0.384931 0.599863 0)
(0.30606 0.682373 0)
(0.101067 0.895658 0)
(3 2.94298e-14 0)
(3 -2.69931e-14 0)
(3 1.61018e-12 0)
(3 4.07803e-12 0)
(3 -1.35307e-10 0)
(3 6.10099e-10 0)
(3 -2.65399e-09 0)
(3 3.18066e-08 0)
(3 -6.99019e-09 0)
(3.00001 1.96346e-06 0)
(2.99994 6.45845e-06 0)
(3.00062 0.000140287 0)
(2.99859 0.000871524 0)
(3.03342 0.0115566 0)
(3.01504 0.0697559 0)
(2.53707 0.304077 0)
(0.837392 0.593014 0)
(0.709127 0.495473 0)
(0.72977 0.529407 0)
(0.689849 0.566408 0)
(0.64357 0.566513 0)
(0.54079 0.616313 0)
(0.478024 0.685508 0)
(0.487883 0.784199 0)
(0.423513 1.0688 0)
(3 1.08551e-14 0)
(3 3.60856e-14 0)
(3 9.47901e-13 0)
(3 5.5266e-12 0)
(3 7.27629e-11 0)
(3 4.32234e-10 0)
(3 -2.01481e-09 0)
(3 4.31634e-08 0)
(3 -5.4498e-08 0)
(3 1.90107e-06 0)
(3.00001 -8.53137e-07 0)
(3.00009 0.000103406 0)
(3.00107 0.000775229 0)
(3.01197 0.00143993 0)
(3.05002 0.0686192 0)
(2.67775 0.267674 0)
(1.06326 0.672843 0)
(0.655054 0.496287 0)
(0.720164 0.533424 0)
(0.745119 0.599169 0)
(0.707326 0.657757 0)
(0.652665 0.692209 0)
(0.61157 0.747041 0)
(0.691384 0.837671 0)
(0.687716 0.986357 0)
(3 -1.44821e-15 0)
(3 4.34597e-14 0)
(3 3.57327e-14 0)
(3 2.84613e-12 0)
(3 1.05375e-11 0)
(3 1.96801e-10 0)
(3 1.5126e-09 0)
(3 -1.17191e-08 0)
(3 1.10023e-07 0)
(3 1.41358e-06 0)
(3.00001 -1.97392e-06 0)
(3.00004 0.000140926 0)
(3.00092 -0.00220545 0)
(3.00205 0.00771602 0)
(3.07477 0.0539774 0)
(2.83215 0.213707 0)
(1.46632 0.76535 0)
(0.59325 0.51751 0)
(0.700784 0.54444 0)
(0.740257 0.607081 0)
(0.734818 0.686384 0)
(0.759062 0.743673 0)
(0.742472 0.794494 0)
(0.812842 0.869207 0)
(0.883789 0.890482 0)
(3 -2.88429e-14 0)
(3 1.03759e-13 0)
(3 -3.839e-13 0)
(3 -5.05967e-12 0)
(3 1.50954e-11 0)
(3 -6.08349e-11 0)
(3 8.80044e-10 0)
(3 -1.06228e-09 0)
(3 1.03645e-08 0)
(3 1.86374e-07 0)
(3 3.87094e-06 0)
(3.00005 9.47326e-05 0)
(3.00026 -0.00115987 0)
(3.00036 0.00478649 0)
(3.0644 0.033519 0)
(2.93806 0.118294 0)
(2.07133 0.82761 0)
(0.656508 0.587212 0)
(0.726353 0.563208 0)
(0.751019 0.603653 0)
(0.758113 0.677917 0)
(0.794945 0.74387 0)
(0.834707 0.801184 0)
(0.905589 0.870432 0)
(0.985514 0.865125 0)
(3 1.32308e-16 0)
(3 -2.76298e-15 0)
(3 1.07142e-13 0)
(3 -4.38817e-13 0)
(3 4.70498e-12 0)
(3 -2.32045e-11 0)
(3 7.38344e-11 0)
(3 6.4072e-09 0)
(3 2.50739e-08 0)
(3 4.80223e-07 0)
(3.00003 2.7145e-06 0)
(2.99988 3.25108e-05 0)
(3.001 0.000220315 0)
(2.9974 0.00231917 0)
(3.05394 0.0230893 0)
(2.99017 0.0909977 0)
(2.46462 0.702857 0)
(0.873698 0.690889 0)
(0.79585 0.606844 0)
(0.78786 0.618798 0)
(0.792973 0.672308 0)
(0.830157 0.736138 0)
(0.884999 0.798552 0)
(0.97333 0.86326 0)
(1.05797 0.867496 0)
(3 4.85882e-15 0)
(3 1.82886e-14 0)
(3 4.77547e-13 0)
(3 2.99845e-12 0)
(3 -5.69192e-12 0)
(3 1.92844e-10 0)
(3 1.89097e-10 0)
(3 1.3086e-08 0)
(3 6.61987e-08 0)
(3 -1.11458e-07 0)
(3.00001 4.34388e-06 0)
(2.99996 9.09685e-06 0)
(3.00051 0.000253933 0)
(2.99896 0.00143121 0)
(3.02875 -0.0293864 0)
(3.02687 0.120995 0)
(2.70009 0.544352 0)
(1.19379 0.8017 0)
(0.833206 0.650742 0)
(0.838102 0.647658 0)
(0.841492 0.68234 0)
(0.869111 0.733769 0)
(0.923978 0.781334 0)
(1.00023 0.839567 0)
(1.09679 0.850623 0)
(3 -1.20158e-15 0)
(3 1.54439e-14 0)
(3 -9.9189e-15 0)
(3 1.51054e-12 0)
(3 2.1081e-12 0)
(3 1.08278e-10 0)
(3 4.51386e-10 0)
(3 -1.3954e-09 0)
(3 3.32637e-08 0)
(3 1.08832e-09 0)
(2.99999 2.10557e-06 0)
(3.00008 7.74506e-06 0)
(2.99968 0.000142159 0)
(3.00249 0.000863808 0)
(3.00047 0.0106777 0)
(3.07034 0.073878 0)
(2.88934 0.388286 0)
(1.68719 0.903937 0)
(0.839745 0.698415 0)
(0.867672 0.689005 0)
(0.883114 0.708236 0)
(0.905057 0.742793 0)
(0.951289 0.776468 0)
(1.02724 0.811823 0)
(1.11286 0.834632 0)
(3 -1.58033e-15 0)
(3 3.88617e-15 0)
(3 1.26154e-13 0)
(3 1.01319e-12 0)
(3 1.05597e-11 0)
(3 1.23744e-11 0)
(3 5.02523e-10 0)
(3 1.30395e-09 0)
(3 3.53977e-08 0)
(3 2.14201e-07 0)
(3 -1.51235e-08 0)
(3.00004 9.86772e-06 0)
(2.99986 3.4921e-05 0)
(3.00151 0.000604709 0)
(2.99783 0.00441079 0)
(3.0801 0.0434218 0)
(3.0086 0.219542 0)
(2.30177 0.946811 0)
(0.967233 0.772135 0)
(0.926102 0.719551 0)
(0.93265 0.717321 0)
(0.951937 0.736991 0)
(0.989923 0.76199 0)
(1.05079 0.793401 0)
(1.13301 0.810409 0)
(3 2.64418e-16 0)
(3 4.17413e-15 0)
(3 2.75462e-14 0)
(3 1.85736e-13 0)
(3 5.26819e-12 0)
(3 1.88763e-11 0)
(3 3.90287e-10 0)
(3 2.26591e-09 0)
(3 1.24833e-09 0)
(3 8.5015e-08 0)
(3 1.00536e-07 0)
(3 1.3922e-06 0)
(3.00001 2.32105e-05 0)
(3.00026 -6.80621e-05 0)
(3.0012 0.0034216 0)
(3.02329 -0.0493109 0)
(3.04835 0.161819 0)
(2.68944 0.766055 0)
(1.28735 0.862598 0)
(0.988541 0.763698 0)
(0.98361 0.74028 0)
(0.998874 0.749224 0)
(1.02884 0.764785 0)
(1.07797 0.785877 0)
(1.14873 0.797556 0)
(3 4.71014e-16 0)
(3 2.25486e-15 0)
(3 3.23676e-15 0)
(3 2.30844e-13 0)
(3 4.27117e-13 0)
(3 1.08801e-11 0)
(3 3.85034e-11 0)
(3 6.35238e-10 0)
(3 3.13341e-09 0)
(3 -4.25708e-08 0)
(3 2.65229e-07 0)
(2.99999 2.61522e-06 0)
(3.00014 2.06804e-05 0)
(2.9993 0.000197163 0)
(3.00531 0.0016326 0)
(2.98332 0.0148103 0)
(3.14565 0.110533 0)
(2.97126 0.538911 0)
(1.83846 0.927775 0)
(1.0303 0.799334 0)
(1.02996 0.768024 0)
(1.04498 0.772232 0)
(1.07054 0.778192 0)
(1.11022 0.785496 0)
(1.16695 0.79008 0)
(3 1.61933e-16 0)
(3 9.5404e-16 0)
(3 8.63809e-15 0)
(3 1.10609e-13 0)
(3 3.52261e-13 0)
(3 3.50081e-12 0)
(3 2.52819e-11 0)
(3 2.43906e-10 0)
(3 1.49453e-09 0)
(3 3.47079e-08 0)
(3 6.34195e-07 0)
(3 -7.86274e-07 0)
(3.00001 1.15448e-05 0)
(3.00004 2.27782e-06 0)
(3.00045 0.000309434 0)
(3.00368 0.0120351 0)
(3.03814 -0.168457 0)
(3.06729 0.336887 0)
(2.44832 1.01784 0)
(1.19393 0.878431 0)
(1.07952 0.832543 0)
(1.08237 0.793171 0)
(1.10486 0.78907 0)
(1.14213 0.788264 0)
(1.19085 0.786119 0)
(3 -4.82033e-17 0)
(3 6.79715e-16 0)
(3 4.28931e-15 0)
(3 6.23591e-14 0)
(3 3.72558e-13 0)
(3 4.18619e-13 0)
(3 1.48847e-11 0)
(3 8.07429e-11 0)
(3 9.77801e-10 0)
(3 6.25343e-09 0)
(3 6.96209e-08 0)
(3 5.68594e-07 0)
(3.00003 5.36672e-06 0)
(2.99999 3.98269e-05 0)
(2.99824 0.000384249 0)
(3.01472 0.00319586 0)
(2.94849 0.0261128 0)
(3.22645 0.202648 0)
(2.91895 0.780495 0)
(1.65241 0.948791 0)
(1.15247 0.854648 0)
(1.13439 0.806925 0)
(1.14849 0.801491 0)
(1.17774 0.794318 0)
(1.21782 0.788922 0)
(3 2.03733e-16 0)
(3 -2.80051e-16 0)
(3 1.35466e-14 0)
(3 7.73687e-14 0)
(3 5.81445e-14 0)
(3 3.40352e-12 0)
(3 1.34422e-11 0)
(3 2.47809e-10 0)
(3 1.60524e-09 0)
(3 -1.05586e-09 0)
(3 1.03184e-07 0)
(3 5.97062e-08 0)
(3 4.11255e-06 0)
(3.00002 4.86828e-05 0)
(3.00005 -2.46432e-05 0)
(3.00094 0.000420565 0)
(3.00496 0.0150472 0)
(3.05787 -0.326731 0)
(3.08937 0.565428 0)
(2.28898 1.05931 0)
(1.22108 0.895645 0)
(1.17216 0.858682 0)
(1.18848 0.818172 0)
(1.21137 0.804717 0)
(1.24629 0.794186 0)
(3 9.80332e-17 0)
(3 -1.04153e-17 0)
(3 1.05772e-15 0)
(3 4.97606e-15 0)
(3 6.42019e-14 0)
(3 5.13407e-14 0)
(3 3.8378e-12 0)
(3 2.42404e-11 0)
(3 6.56486e-11 0)
(3 1.50901e-09 0)
(3 1.6014e-08 0)
(3 1.33289e-07 0)
(3 1.12615e-06 0)
(3.00002 2.7941e-06 0)
(3.00018 6.86942e-05 0)
(2.99812 0.00061964 0)
(3.01093 0.00481014 0)
(2.91336 0.0383517 0)
(3.31358 0.335558 0)
(2.90983 0.989468 0)
(1.60484 0.98209 0)
(1.24716 0.900952 0)
(1.23509 0.834574 0)
(1.25136 0.822289 0)
(1.27886 0.808873 0)
(3 -3.28339e-17 0)
(3 9.34259e-16 0)
(3 -2.31232e-15 0)
(3 1.24725e-14 0)
(3 -1.35448e-14 0)
(3 2.84713e-13 0)
(3 6.55409e-13 0)
(3 8.95203e-12 0)
(3 1.94067e-10 0)
(3 1.03872e-09 0)
(3 -1.28406e-09 0)
(3 1.31574e-07 0)
(3 4.09035e-08 0)
(3 5.54138e-06 0)
(3.00002 5.45372e-05 0)
(3.00009 4.19334e-05 0)
(3.0013 0.00108548 0)
(3.00644 0.0124118 0)
(3.07715 -0.270775 0)
(3.10976 0.690076 0)
(2.2406 1.05701 0)
(1.32903 0.91901 0)
(1.27877 0.875835 0)
(1.29629 0.836059 0)
(1.31573 0.82144 0)
(3 -1.02638e-16 0)
(3 -1.08776e-16 0)
(3 2.47702e-16 0)
(3 1.69329e-15 0)
(3 1.24592e-14 0)
(3 7.68682e-14 0)
(3 7.97835e-13 0)
(3 5.69911e-12 0)
(3 5.02514e-11 0)
(3 3.71186e-10 0)
(3 2.71345e-09 0)
(3 2.57829e-08 0)
(3 2.01904e-07 0)
(2.99999 1.63558e-06 0)
(3.00005 1.34184e-05 0)
(2.99997 8.73826e-05 0)
(2.99772 0.000874968 0)
(3.01932 0.00671475 0)
(2.92408 0.0526174 0)
(3.35066 0.428782 0)
(2.89914 1.06376 0)
(1.67099 0.998288 0)
(1.36046 0.940362 0)
(1.33686 0.866583 0)
(1.35071 0.851181 0)
(3 2.73669e-16 0)
(3 -2.34167e-16 0)
(3 -2.81632e-16 0)
(3 1.27199e-15 0)
(3 1.94156e-14 0)
(3 2.47571e-13 0)
(3 -1.37509e-13 0)
(3 5.00862e-12 0)
(3 2.2187e-11 0)
(3 3.45666e-10 0)
(3 4.35052e-09 0)
(3 1.31495e-09 0)
(3 1.50435e-07 0)
(3 1.67501e-07 0)
(3 7.25213e-06 0)
(3.00003 6.46085e-05 0)
(3.0001 1.33211e-05 0)
(3.00164 0.000670141 0)
(3.00707 0.0155401 0)
(3.10203 -0.299573 0)
(3.13948 0.783783 0)
(2.28564 1.07274 0)
(1.43929 0.948056 0)
(1.38115 0.911545 0)
(1.39219 0.864908 0)
(3 1.17267e-16 0)
(3 3.31333e-16 0)
(3 5.95331e-16 0)
(3 1.18171e-15 0)
(3 3.17331e-15 0)
(3 2.11538e-14 0)
(3 1.39503e-13 0)
(3 1.16652e-12 0)
(3 9.43936e-12 0)
(3 7.41047e-11 0)
(3 5.78721e-10 0)
(3 4.10562e-09 0)
(3 3.42961e-08 0)
(3 2.61102e-07 0)
(3 2.08173e-06 0)
(3.00005 1.62862e-05 0)
(3 0.000108493 0)
(2.99764 0.00102718 0)
(3.02241 0.00764789 0)
(2.91571 0.0591269 0)
(3.38556 0.461585 0)
(2.94767 1.09231 0)
(1.77669 1.02128 0)
(1.44934 0.977684 0)
(1.42217 0.900794 0)
(3 7.40563e-17 0)
(3 3.02068e-17 0)
(3 3.60069e-16 0)
(3 8.39794e-16 0)
(3 2.04639e-15 0)
(3 9.48379e-15 0)
(3 1.20798e-13 0)
(3 1.4121e-12 0)
(3 -5.20186e-13 0)
(3 7.65952e-11 0)
(3 -5.53068e-10 0)
(3 3.25815e-09 0)
(3 -2.13827e-08 0)
(3 1.97791e-07 0)
(3 -7.98018e-07 0)
(3 8.05679e-06 0)
(3.00004 7.66977e-05 0)
(3.00007 2.1449e-05 0)
(3.00198 -0.00243026 0)
(3.00388 0.0090733 0)
(3.13323 -0.169253 0)
(3.22077 0.779106 0)
(2.43325 1.08364 0)
(1.54039 0.965032 0)
(1.47414 0.938491 0)
(3 -1.59764e-16 0)
(3 -6.11517e-17 0)
(3 -6.88816e-16 0)
(3 -9.10302e-16 0)
(3 -7.32524e-16 0)
(3 1.77593e-15 0)
(3 1.96886e-14 0)
(3 1.55584e-13 0)
(3 1.09309e-12 0)
(3 1.08268e-11 0)
(3 6.55261e-11 0)
(3 6.05007e-10 0)
(3 4.39504e-09 0)
(3 3.73468e-08 0)
(3 2.70651e-07 0)
(3 3.2251e-06 0)
(3.00002 -3.53491e-05 0)
(3.00005 0.000126604 0)
(2.99827 0.00107204 0)
(3.01589 0.00718262 0)
(2.93947 0.0592219 0)
(3.36419 0.419253 0)
(3.02886 1.07339 0)
(1.92154 1.04118 0)
(1.53952 1.00425 0)
(3 5.24823e-22 0)
(3 1.16117e-16 0)
(3 -3.59367e-16 0)
(3 -4.65431e-16 0)
(3 -5.06114e-16 0)
(3 8.58852e-16 0)
(3 -2.33993e-15 0)
(3 9.13573e-14 0)
(3 2.55095e-13 0)
(3 5.09005e-12 0)
(3 2.41085e-11 0)
(3 2.99026e-10 0)
(3 4.478e-10 0)
(3 1.42472e-08 0)
(3 2.97388e-08 0)
(3 5.63557e-07 0)
(2.99999 5.85812e-06 0)
(3.00007 3.07895e-05 0)
(2.9999 -7.88935e-05 0)
(3.00274 0.0019694 0)
(3.00244 0.0073379 0)
(3.13739 -0.015664 0)
(3.31977 0.678307 0)
(2.60756 1.0563 0)
(1.6814 0.966002 0)
(3 -2.96277e-33 0)
(3 -5.13247e-17 0)
(3 1.53959e-16 0)
(3 3.94648e-16 0)
(3 3.94465e-16 0)
(3 9.90807e-16 0)
(3 3.68135e-15 0)
(3 4.70564e-14 0)
(3 3.11609e-13 0)
(3 -7.13236e-13 0)
(3 1.34318e-11 0)
(3 3.022e-11 0)
(3 8.28406e-10 0)
(3 3.48609e-09 0)
(3 5.24241e-08 0)
(3 3.19729e-07 0)
(3 -1.36494e-07 0)
(2.99999 1.20557e-05 0)
(3.00015 7.76227e-05 0)
(2.99928 0.000859771 0)
(3.00969 0.00585332 0)
(2.976 0.0511738 0)
(3.32337 0.381251 0)
(3.11938 0.998514 0)
(2.13927 1.05947 0)
(3 -1.02638e-16 0)
(3 -2.6392e-16 0)
(3 -2.40007e-16 0)
(3 -3.08884e-16 0)
(3 -3.18042e-16 0)
(3 -1.76166e-16 0)
(3 -4.03542e-16 0)
(3 1.28106e-14 0)
(3 6.04964e-14 0)
(3 4.69238e-13 0)
(3 4.35842e-12 0)
(3 3.51951e-11 0)
(3 3.77711e-10 0)
(3 -4.58323e-10 0)
(3 2.193e-08 0)
(3 -1.41706e-07 0)
(3 2.39476e-07 0)
(3 2.09529e-06 0)
(3.00004 2.11816e-05 0)
(2.99997 0.000115575 0)
(3.00198 -0.00408661 0)
(3.00254 0.0120647 0)
(3.11516 0.0623659 0)
(3.43569 0.603517 0)
(2.85033 0.981972 0)
(3 -2.56595e-16 0)
(3 5.13189e-17 0)
(3 -3.59232e-16 0)
(3 -4.61701e-16 0)
(3 -6.9638e-16 0)
(3 -8.77901e-16 0)
(3 -7.96142e-16 0)
(3 1.62374e-15 0)
(3 2.57156e-14 0)
(3 3.6607e-14 0)
(3 1.61776e-12 0)
(3 8.63213e-12 0)
(3 7.27776e-11 0)
(3 4.86021e-10 0)
(3 3.60467e-09 0)
(3 2.60139e-08 0)
(3 1.24861e-08 0)
(3 8.89465e-07 0)
(3.00001 7.2001e-06 0)
(3 6.98957e-05 0)
(2.99897 0.000718783 0)
(3.00747 0.00505423 0)
(2.98532 0.0436483 0)
(3.36541 -0.209437 0)
(3.24028 0.998701 0)
(3 -6.04381e-17 0)
(3 1.53957e-16 0)
(3 2.56595e-16 0)
(3 2.56595e-16 0)
(3 2.90626e-16 0)
(3 3.90116e-16 0)
(3 7.56016e-16 0)
(3 2.40219e-15 0)
(3 7.0159e-17 0)
(3 5.70197e-14 0)
(3 2.79588e-13 0)
(3 3.20946e-12 0)
(3 1.85932e-11 0)
(3 1.9545e-10 0)
(3 1.33098e-09 0)
(3 7.98261e-10 0)
(3 4.13248e-08 0)
(3 4.19783e-07 0)
(3 1.09875e-06 0)
(3.00001 3.74293e-05 0)
(3.00011 -0.000304824 0)
(3.00018 0.00142274 0)
(3.01544 0.00438762 0)
(2.95441 0.0734971 0)
(3.46298 0.503011 0)
(3 5.13189e-17 0)
(3 3.84822e-17 0)
(3 2.05276e-16 0)
(3 3.079e-16 0)
(3 4.77973e-16 0)
(3 7.86884e-16 0)
(3 1.24723e-15 0)
(3 1.65455e-15 0)
(3 3.37344e-15 0)
(3 8.91729e-16 0)
(3 1.17632e-13 0)
(3 4.83845e-13 0)
(3 1.05447e-12 0)
(3 3.34626e-11 0)
(3 3.51456e-10 0)
(3 9.48981e-10 0)
(3 8.96776e-09 0)
(3 8.98959e-08 0)
(3 9.3724e-07 0)
(3.00002 7.77691e-06 0)
(2.99995 5.77452e-05 0)
(3.00032 -0.000186116 0)
(3.00066 0.00291925 0)
(3.00036 0.0121646 0)
(3.17137 0.0455545 0)
(3 1.53957e-16 0)
(3 1.53957e-16 0)
(3 3.34899e-17 0)
(3 1.83211e-16 0)
(3 7.75965e-17 0)
(3 2.90145e-16 0)
(3 1.32473e-16 0)
(3 -1.62137e-17 0)
(3 5.92665e-16 0)
(3 4.4204e-15 0)
(3 9.01085e-15 0)
(3 2.14644e-13 0)
(3 1.41843e-12 0)
(3 1.01637e-11 0)
(3 9.15863e-11 0)
(3 3.92819e-10 0)
(3 5.01886e-10 0)
(3 3.07916e-08 0)
(3 3.4372e-09 0)
(3 2.18379e-06 0)
(2.99999 6.58677e-06 0)
(3.00019 9.51767e-05 0)
(2.99937 0.000644932 0)
(3.00816 0.00522001 0)
(2.98533 0.0509438 0)
(3 -1.02638e-16 0)
(3 -1.00939e-17 0)
(3 5.69363e-17 0)
(3 2.38321e-16 0)
(3 5.45597e-17 0)
(3 -5.535e-17 0)
(3 -1.88464e-16 0)
(3 -2.33861e-16 0)
(3 -4.58525e-17 0)
(3 -1.01252e-15 0)
(3 7.09188e-15 0)
(3 3.27516e-14 0)
(3 7.87184e-14 0)
(3 3.3078e-12 0)
(3 1.80261e-11 0)
(3 1.53081e-10 0)
(3 1.28147e-09 0)
(3 8.55847e-09 0)
(3 1.24296e-08 0)
(3 2.24026e-07 0)
(3 2.08406e-06 0)
(3.00002 1.8223e-05 0)
(3.00006 0.000115827 0)
(3.00106 -0.000498792 0)
(3.00293 0.00769758 0)
(3 5.13189e-17 0)
(3 5.54127e-17 0)
(3 4.71331e-17 0)
(3 1.18008e-16 0)
(3 8.88698e-17 0)
(3 1.47374e-16 0)
(3 3.22575e-16 0)
(3 4.77805e-16 0)
(3 1.15333e-16 0)
(3 6.6842e-16 0)
(3 1.50069e-15 0)
(3 1.28372e-14 0)
(3 9.71092e-14 0)
(3 6.7752e-13 0)
(3 6.6712e-12 0)
(3 -7.20996e-11 0)
(3 4.41616e-10 0)
(3 5.10277e-10 0)
(3 1.70886e-08 0)
(3 1.52086e-07 0)
(3 1.02701e-06 0)
(3.00001 5.37487e-06 0)
(3.00002 3.97312e-05 0)
(2.99995 0.000368022 0)
(3.00154 -0.000651495 0)
(3 1.12736e-16 0)
(3 3.06918e-16 0)
(3 3.45445e-16 0)
(3 5.13189e-17 0)
(3 5.13189e-17 0)
(3 -2.56595e-16 0)
(3 -5.13189e-16 0)
(3 -6.4693e-16 0)
(3 -9.90644e-16 0)
(3 -1.27352e-15 0)
(3 -1.29814e-15 0)
(3 1.30594e-15 0)
(3 1.3701e-14 0)
(3 1.68406e-13 0)
(3 1.07144e-12 0)
(3 1.2491e-11 0)
(3 9.69968e-11 0)
(3 7.62293e-10 0)
(3 -3.35851e-10 0)
(3 4.38305e-08 0)
(3 1.7044e-07 0)
(3 2.39863e-06 0)
(3.00002 1.73703e-05 0)
(3.00002 -2.51927e-05 0)
(2.99971 0.000881074 0)
(3 -5.13189e-17 0)
(3 -2.56595e-16 0)
(3 -2.56595e-16 0)
(3 -3.07913e-16 0)
(3 -3.59232e-16 0)
(3 -3.3222e-16 0)
(3 -1.91789e-16 0)
(3 -2.98028e-16 0)
(3 3.61395e-17 0)
(3 2.10395e-16 0)
(3 1.62091e-17 0)
(3 1.57421e-15 0)
(3 5.76485e-15 0)
(3 3.64213e-14 0)
(3 1.04592e-13 0)
(3 1.73525e-12 0)
(3 3.88257e-11 0)
(3 -5.76677e-10 0)
(3 1.56571e-09 0)
(3 1.26462e-08 0)
(3 -8.40654e-08 0)
(3 7.20224e-07 0)
(3 4.26167e-06 0)
(3.00001 1.07435e-05 0)
(2.99999 0.00010121 0)
(3 2.0696e-17 0)
(3 -1.25843e-16 0)
(3 1.02638e-16 0)
(3 3.07891e-16 0)
(3 4.61831e-16 0)
(3 4.10539e-16 0)
(3 5.13187e-16 0)
(3 5.132e-16 0)
(3 5.73011e-16 0)
(3 5.11398e-16 0)
(3 4.75151e-16 0)
(3 6.74889e-16 0)
(3 1.2627e-15 0)
(3 1.6045e-14 0)
(3 5.88674e-15 0)
(3 7.02447e-13 0)
(3 5.05852e-12 0)
(3 4.83135e-11 0)
(3 1.54655e-10 0)
(3 2.40987e-09 0)
(3 1.54496e-08 0)
(3 1.3026e-07 0)
(3 9.36498e-07 0)
(2.99999 6.76339e-06 0)
(3.00009 4.87657e-05 0)
(3 1.53957e-16 0)
(3 2.90643e-16 0)
(3 1.82139e-16 0)
(3 1.02638e-16 0)
(3 2.05276e-16 0)
(3 2.87172e-16 0)
(3 6.86408e-18 0)
(3 -8.66505e-18 0)
(3 -2.0545e-16 0)
(3 -1.32951e-16 0)
(3 1.02765e-16 0)
(3 6.2314e-18 0)
(3 3.7373e-16 0)
(3 3.36542e-15 0)
(3 2.65698e-14 0)
(3 1.77794e-13 0)
(3 1.93377e-12 0)
(3 -5.03902e-12 0)
(3 1.2527e-10 0)
(3 1.02772e-10 0)
(3 5.17625e-09 0)
(3 7.32557e-08 0)
(3 4.14759e-07 0)
(3 5.60491e-07 0)
(3.00002 1.89979e-06 0)
(3 -1.02638e-16 0)
(3 -3.59232e-16 0)
(3 -3.77615e-16 0)
(3 -7.69784e-16 0)
(3 -7.69784e-16 0)
(3 -7.18465e-16 0)
(3 -5.92358e-16 0)
(3 -6.67146e-16 0)
(3 -7.57371e-16 0)
(3 -5.10276e-16 0)
(3 -5.25567e-16 0)
(3 -4.05957e-16 0)
(3 -4.18771e-16 0)
(3 1.70727e-15 0)
(3 1.32095e-14 0)
(3 2.83914e-14 0)
(3 4.99756e-13 0)
(3 3.90729e-12 0)
(3 3.45235e-11 0)
(3 3.12783e-10 0)
(3 3.53882e-09 0)
(3 -2.14142e-09 0)
(3 7.91323e-08 0)
(3 3.8539e-07 0)
(3 3.54485e-06 0)
(3 -1.02638e-16 0)
(3 -1.53957e-16 0)
(3 -1.53957e-16 0)
(3 -5.13189e-17 0)
(3 -5.13189e-17 0)
(3 -5.13189e-17 0)
(3 -5.13189e-17 0)
(3 -1.02638e-16 0)
(3 -5.13189e-17 0)
(3 -2.29239e-17 0)
(3 -2.20845e-16 0)
(3 -3.29978e-16 0)
(3 -5.29888e-16 0)
(3 -7.14608e-16 0)
(3 -1.54248e-15 0)
(3 1.82141e-14 0)
(3 1.5208e-13 0)
(3 9.55239e-13 0)
(3 1.15732e-11 0)
(3 -2.07987e-11 0)
(3 4.58433e-10 0)
(3 3.20737e-09 0)
(3 1.64681e-08 0)
(3 -8.36694e-09 0)
(3 -2.94516e-07 0)
(3 5.13189e-17 0)
(3 -5.13189e-17 0)
(3 5.13189e-17 0)
(3 9.19145e-18 0)
(3 9.34464e-17 0)
(3 -1.02638e-16 0)
(3 -1.02638e-16 0)
(3 -1.02638e-16 0)
(3 -1.19359e-16 0)
(3 -3.1522e-16 0)
(3 -4.11107e-16 0)
(3 -5.58579e-16 0)
(3 -6.15196e-16 0)
(3 -1.359e-15 0)
(3 2.33097e-15 0)
(3 1.04476e-15 0)
(3 5.39065e-14 0)
(3 -6.40536e-13 0)
(3 3.2123e-12 0)
(3 -1.29123e-12 0)
(3 1.28369e-10 0)
(3 1.17724e-10 0)
(3 2.10798e-09 0)
(3 5.4308e-09 0)
(3 -8.8514e-08 0)
(3 5.13189e-17 0)
(3 1.55253e-16 0)
(3 5.00227e-17 0)
(3 6.51061e-17 0)
(3 3.75317e-17 0)
(3 -2.56595e-16 0)
(3 -5.13189e-16 0)
(3 -6.67146e-16 0)
(3 -8.72421e-16 0)
(3 -8.72421e-16 0)
(3 -9.02406e-16 0)
(3 -5.86255e-16 0)
(3 -6.66154e-16 0)
(3 -5.56672e-16 0)
(3 -7.36163e-16 0)
(3 7.36816e-16 0)
(3 1.85724e-15 0)
(3 4.7835e-14 0)
(3 3.39764e-13 0)
(3 1.82449e-12 0)
(3 1.70305e-11 0)
(3 6.60297e-12 0)
(3 -3.65139e-10 0)
(3 5.88405e-09 0)
(3 -3.27194e-08 0)
(3 5.13189e-17 0)
(3 2.05276e-16 0)
(3 3.07913e-16 0)
(3 3.07913e-16 0)
(3 4.10551e-16 0)
(3 4.6187e-16 0)
(3 4.6187e-16 0)
(3 4.55721e-16 0)
(3 6.00288e-16 0)
(3 2.20815e-16 0)
(3 1.53957e-16 0)
(3 -3.59232e-16 0)
(3 -3.52514e-16 0)
(3 -6.89541e-16 0)
(3 -5.42806e-16 0)
(3 -8.03249e-16 0)
(3 -5.17616e-16 0)
(3 -2.49248e-14 0)
(3 2.1465e-13 0)
(3 3.31093e-13 0)
(3 7.39333e-12 0)
(3 -1.14348e-10 0)
(3 -4.40201e-10 0)
(3 3.44091e-09 0)
(3 -2.5932e-08 0)
(3 -5.13189e-17 0)
(3 -1.02638e-16 0)
(3 -3.07913e-16 0)
(3 -3.74676e-16 0)
(3 -4.49955e-16 0)
(3 -5.28839e-16 0)
(3 -2.92263e-16 0)
(3 -1.09732e-16 0)
(3 -5.13189e-17 0)
(3 -1.53957e-16 0)
(3 -2.05276e-16 0)
(3 -3.59232e-16 0)
(3 -3.59232e-16 0)
(3 -3.59272e-16 0)
(3 -2.50136e-16 0)
(3 1.92708e-17 0)
(3 1.67406e-15 0)
(3 1.00764e-14 0)
(3 1.72738e-14 0)
(3 4.09086e-13 0)
(3 1.73967e-12 0)
(3 2.39877e-11 0)
(3 1.40185e-10 0)
(3 1.03728e-09 0)
(3 -1.05306e-09 0)
(3 -1.02638e-16 0)
(3 -2.56595e-16 0)
(3 -5.64508e-16 0)
(3 -7.18465e-16 0)
(3 -8.72421e-16 0)
(3 -9.75059e-16 0)
(3 -9.11147e-16 0)
(3 -1.15294e-15 0)
(3 -1.10509e-15 0)
(3 -9.2374e-16 0)
(3 -6.15827e-16 0)
(3 -2.56595e-16 0)
(3 -9.12304e-17 0)
(3 2.1343e-16 0)
(3 2.39292e-16 0)
(3 4.13083e-16 0)
(3 6.42967e-16 0)
(3 8.14903e-16 0)
(3 1.13169e-14 0)
(3 -4.06361e-14 0)
(3 -5.14529e-14 0)
(3 -3.97259e-12 0)
(3 -2.3961e-11 0)
(3 1.23372e-10 0)
(3 -2.13192e-09 0)
(1.18022 1.0377 0)
(0.601289 0.642954 0)
(-0.564251 0.0558202 0)
(-0.413304 -0.157955 0)
(-0.581754 -0.166477 0)
(-0.4519 -0.096008 0)
(-0.663533 0.080002 0)
(-0.992395 0.140152 0)
(-1.18139 0.141749 0)
(-1.26515 0.0994936 0)
(-1.28521 0.0630617 0)
(-1.27544 0.028973 0)
(-1.27175 0.0277441 0)
(-1.28305 0.0180504 0)
(-1.37238 -0.00347944 0)
(-1.4469 -0.0250887 0)
(-1.49491 -0.0236878 0)
(-1.51807 -0.0206949 0)
(-1.52557 -0.0180888 0)
(-1.51354 -0.0115674 0)
(-1.50868 -0.0102646 0)
(-1.50537 -0.00953063 0)
(-1.50429 -0.00845762 0)
(-1.5072 -0.00560334 0)
(-1.50975 -0.00535729 0)
(-1.5163 -0.00257596 0)
(-1.52208 -0.00279759 0)
(-1.52679 0.00131464 0)
(-1.52972 0.00295003 0)
(-1.53089 0.00399894 0)
(-1.53117 0.0037244 0)
(-1.51144 0.00548691 0)
(-1.48898 0.00699323 0)
(-1.44947 0.00865893 0)
(-1.38158 0.00458219 0)
(-1.31028 -0.00193488 0)
(-1.23079 -0.018021 0)
(-1.13773 -0.0321081 0)
(-1.0362 -0.0487078 0)
(-0.939343 -0.0577643 0)
(-0.847068 -0.0505951 0)
(-0.748867 -0.0379129 0)
(-0.64919 -0.0284359 0)
(-0.551193 -0.0111806 0)
(-0.453459 0.00152989 0)
(-0.369963 0.0141149 0)
(-0.309592 0.0104138 0)
(-0.20949 -0.0121809 0)
(-0.117282 -0.0146541 0)
(-0.045524 -0.02859 0)
(0.0585168 -0.0311954 0)
(0.129928 -0.025356 0)
(0.207603 -0.0282036 0)
(0.278893 -0.0280187 0)
(0.345927 -0.0283396 0)
(0.408195 -0.0279067 0)
(0.466434 -0.0272763 0)
(0.520838 -0.0259741 0)
(0.571958 -0.0245944 0)
(0.61986 -0.0228345 0)
(0.664658 -0.0210179 0)
(0.706702 -0.0195442 0)
(0.746549 -0.0180979 0)
(0.78431 -0.0166546 0)
(0.820014 -0.0152736 0)
(0.853355 -0.0139591 0)
(0.884872 -0.0129072 0)
(0.914951 -0.0119666 0)
(0.943554 -0.0111699 0)
(0.970983 -0.0105196 0)
(0.997062 -0.0100397 0)
(1.02217 -0.00956874 0)
(1.04627 -0.00914385 0)
(1.06978 -0.00865932 0)
(1.09276 -0.00822771 0)
(1.11533 -0.00772541 0)
(1.13744 -0.00724867 0)
(1.1592 -0.00677083 0)
(1.18019 -0.00637976 0)
(1.20083 -0.00588515 0)
(1.22042 -0.00542512 0)
(1.23966 -0.00492551 0)
(1.25798 -0.00459472 0)
(1.27607 -0.00422474 0)
(1.29334 -0.00397977 0)
(1.3104 -0.00366634 0)
(1.32654 -0.00343571 0)
(1.34248 -0.00317865 0)
(1.35751 -0.00300328 0)
(1.37243 -0.00273864 0)
(1.38637 -0.00256403 0)
(1.40024 -0.00227329 0)
(1.41275 -0.00208686 0)
(1.42519 -0.00182542 0)
(1.43641 -0.00175 0)
(1.44758 -0.00149978 0)
(1.45872 -0.00161879 0)
(1.46977 -0.00120091 0)
(1.48143 -0.00118908 0)
(1.4947 0.000240692 0)
(1.22308 0.949168 0)
(1.1825 0.740717 0)
(0.750903 0.579426 0)
(0.666035 0.292806 0)
(0.175705 0.17912 0)
(-0.131067 0.131592 0)
(-0.329381 0.231062 0)
(-0.767521 0.150346 0)
(-0.901092 0.041138 0)
(-0.953156 -0.00700264 0)
(-0.889844 -0.0503279 0)
(-0.855246 -0.0414417 0)
(-0.846473 -0.0332808 0)
(-0.895559 -0.0175282 0)
(-0.991586 -0.0152166 0)
(-1.07309 0.0340772 0)
(-1.12663 0.0593444 0)
(-1.14701 0.0509031 0)
(-1.14987 0.0357578 0)
(-1.13661 0.0139951 0)
(-1.12988 0.0067983 0)
(-1.12581 0.00632933 0)
(-1.12451 0.00704308 0)
(-1.12782 0.0078837 0)
(-1.13019 0.00837462 0)
(-1.13612 0.00551537 0)
(-1.14035 0.00220266 0)
(-1.1514 0.000556461 0)
(-1.15809 -0.00123075 0)
(-1.16152 -0.00266403 0)
(-1.16196 -0.00260845 0)
(-1.14123 -0.00311291 0)
(-1.11356 -0.00417062 0)
(-1.07296 -0.00954989 0)
(-0.999778 -0.0180042 0)
(-0.921699 -0.0293439 0)
(-0.830352 -0.0287836 0)
(-0.727389 -0.0179058 0)
(-0.597592 -0.0473001 0)
(-0.493573 -0.0361771 0)
(-0.394656 -0.0416181 0)
(-0.256907 -0.0719768 0)
(-0.135375 -0.0973553 0)
(0.00405975 -0.117615 0)
(0.154329 -0.136447 0)
(0.28995 -0.129362 0)
(0.42444 -0.135126 0)
(0.542999 -0.14735 0)
(0.626098 -0.124597 0)
(0.701424 -0.118686 0)
(0.765308 -0.116481 0)
(0.817428 -0.100937 0)
(0.870041 -0.0949049 0)
(0.915522 -0.0880793 0)
(0.955719 -0.079149 0)
(0.992735 -0.0712076 0)
(1.02521 -0.0652816 0)
(1.05506 -0.0591553 0)
(1.08449 -0.0542001 0)
(1.11206 -0.0495802 0)
(1.13869 -0.045346 0)
(1.16408 -0.0415281 0)
(1.1886 -0.038245 0)
(1.21222 -0.035186 0)
(1.23464 -0.0321562 0)
(1.25609 -0.0290399 0)
(1.27684 -0.0264488 0)
(1.29678 -0.0243542 0)
(1.3158 -0.0223999 0)
(1.33442 -0.0203798 0)
(1.35232 -0.0185238 0)
(1.3696 -0.0168872 0)
(1.38612 -0.0156304 0)
(1.40214 -0.0146817 0)
(1.41772 -0.0140511 0)
(1.43308 -0.0134342 0)
(1.44828 -0.0128821 0)
(1.46333 -0.0120692 0)
(1.47814 -0.0111916 0)
(1.49282 -0.0102372 0)
(1.50718 -0.00938325 0)
(1.52145 -0.00846602 0)
(1.53525 -0.0076389 0)
(1.54893 -0.00669751 0)
(1.56213 -0.00586927 0)
(1.57509 -0.00492844 0)