/*--------------------------------*- C++ -*----------------------------------*\
| =========                 |                                                 |
| \\      /  F ield         | OpenFOAM: The Open Source CFD Toolbox           |
|  \\    /   O peration     | Version:  v2106                                 |
|   \\  /    A nd           | Website:  www.openfoam.com                      |
|    \\/     M anipulation  |                                                 |
\*---------------------------------------------------------------------------*/
FoamFile
{
    version     2.0;
    format      ascii;
    arch        "LSB;label=32;scalar=64";
    class       volScalarField;
    location    "12";
    object      p;
}
// * * * * * * * * * * * * * * * * * * * * * * * * * * * * * * * * * * * * * //

dimensions      [1 -1 -2 0 0 0 0];

internalField   nonuniform List<scalar> 
5250
(
1
1
1
1
1
1
1
1
1.00002
1.0001
1.00139
1.01004
1.10815
1.72016
4.23622
10.827
11.3835
11.0569
11.3477
11.571
11.6702
11.81
11.9036
11.9699
12.001
1
1
1
1
1
1
1
1
1.00002
1.0001
1.00135
1.00976
1.10516
1.70441
4.17888
10.739
11.4256
11.0455
11.3378
11.5712
11.6388
11.7896
11.8868
11.9514
11.9837
1
1
1
1
1
1
1
1
1.00002
1.00009
1.00133
1.00908
1.10254
1.67041
4.04583
10.4885
11.4981
10.9637
11.2922
11.4984
11.5823
11.718
11.8087
11.8716
11.9023
1
1
1
1
1
1
1
1
1.00001
1.00009
1.00113
1.0085
1.08991
1.61816
3.85754
10.1317
11.6346
10.8598
11.2343
11.4375
11.5206
11.6436
11.7147
11.7746
11.8049
1
1
1
1
1
1
1
1
1.00001
1.0001
1.00092
1.00813
1.07182
1.54516
3.59539
9.6251
11.7578
10.7406
11.1448
11.3495
11.3943
11.497
11.5803
11.6296
11.6582
1
1
1
1
1
1
1
1
1.00001
1.00009
1.00075
1.0068
1.05915
1.46051
3.25603
8.94721
11.9779
10.6006
11.0571
11.2267
11.2803
11.3735
11.4222
11.4662
11.4718
1
1
1
1
1
1
1
1
1.00001
1.00006
1.00054
1.00522
1.04204
1.35795
2.82917
8.01473
12.1764
10.4696
10.9338
11.0872
11.137
11.1701
11.2302
11.2169
11.2302
1
1
1
1
1
1
1
1
1
1.00004
1.00039
1.00356
1.0299
1.27835
2.50021
7.03883
12.2389
10.363
10.7854
10.9659
10.9927
10.9823
10.9895
10.9856
10.8455
1
1
1
1
1
1
1
1
1
1.00003
1.00026
1.00253
1.02125
1.21456
2.21351
6.11772
11.8201
10.4489
10.6678
10.7828
10.791
10.7242
10.6148
10.5457
10.3034
1
1
1
1
1
1
1
1
1
1.00003
1.00016
1.00212
1.01547
1.16256
1.97161
5.28042
11.0122
10.4099
10.519
10.6001
10.5634
10.4642
10.1938
10.2293
9.30697
1
1
1
1
1
1
1
1
1
1.00002
1.00011
1.00159
1.01067
1.12076
1.75288
4.42989
10.0551
10.5011
10.3349
10.2389
10.2412
10.1195
9.6023
9.2456
6.82711
1
1
1
1
1
1
1
1
1
1.00001
1.00012
1.00105
1.00986
1.08074
1.55873
3.65446
8.86281
10.5829
10.1354
9.93893
9.88253
9.70882
9.0213
8.42735
6.52931
1
1
1
1
1
1
1
1
1
1.00001
1.00006
1.00057
1.00538
1.04225
1.37957
2.93361
7.52678
10.6177
9.79814
9.69352
9.53452
9.33131
8.72357
7.96636
6.63717
1
1
1
1
1
1
1
1
1
1
1.00002
1.00035
1.00215
1.02459
1.2424
2.34012
6.21381
10.5608
9.60082
9.45445
9.30073
9.03051
8.47467
7.73935
6.61861
1
1
1
1
1
1
1
1
1
1
1.00003
1.00017
1.00215
1.01566
1.16301
1.97672
5.11295
9.74781
9.53622
9.27219
9.08491
8.78144
8.24528
7.56965
6.60538
1
1
1
1
1
1
1
1
1
1
1.00002
1.0001
1.00131
1.00917
1.09994
1.65452
4.0419
8.44842
9.47788
9.0966
8.82708
8.50168
8.03184
7.44768
6.61521
1
1
1
1
1
1
1
1
1
1
1.00001
1.00008
1.00071
1.00607
1.05298
1.41217
3.07485
6.97842
9.37459
8.90339
8.59995
8.30141
7.87396
7.34944
6.6193
1
1
1
1
1
1
1
1
1
1
1
1.00005
1.00024
1.00344
1.02278
1.24696
2.2607
5.48522
8.97949
8.78314
8.48643
8.17773
7.76764
7.26619
6.62071
1
1
1
1
1
1
1
1
1
1
1
1.00002
1.0002
1.00174
1.01446
1.12534
1.79597
4.27767
8.02144
8.77939
8.42368
8.05213
7.64387
7.17437
6.60179
1
1
1
1
1
1
1
1
1
1
1
1.00001
1.00015
1.00021
1.00849
1.03637
1.50548
3.16177
6.55259
8.60151
8.23537
7.90444
7.5377
7.11435
6.59405
1
1
1
1
1
1
1
1
1
1
1
1.00001
1.00005
1.00035
1.00308
1.02465
1.20337
2.17834
5.01913
8.01303
8.11272
7.83498
7.48185
7.0772
6.59848
1
1
1
1
1
1
1
1
1
1
1
1
1.00004
1.00025
0.999967
1.01466
1.04154
1.77663
3.75937
6.88289
8.13852
7.81757
7.46397
7.06734
6.61431
1
1
1
1
1
1
1
1
1
1
1
1
1.00001
1.00007
1.00055
1.00484
1.03741
1.30139
2.59706
5.45547
7.82395
7.68647
7.40405
7.03995
6.61342
1
1
1
1
1
1
1
1
1
1
1
1
1
1.00007
1.00033
1.00009
1.01719
1.03771
1.90709
4.14655
6.98813
7.76571
7.43437
7.05639
6.63884
1
1
1
1
1
1
1
1
1
1
1
1
1
1.00001
1.0001
1.00076
1.00651
1.05031
1.38531
2.87093
5.58612
7.54588
7.32972
7.01453
6.64034
1
1
1
1
1
1
1
1
1
1
1
1
1
1
1.00008
1.0004
1
1.02124
1.05394
1.99467
4.2307
6.78848
7.36105
7.03303
6.66753
1
1
1
1
1
1
1
1
1
1
1
1
1
1
1.00002
1.00014
1.00089
1.0077
1.05613
1.41751
2.91504
5.40853
7.1048
6.92483
6.63802
1
1
1
1
1
1
1
1
1
1
1
1
1
1
1.00001
1.00006
1.00035
1.00288
1.02583
1.03856
1.94101
4.03859
6.35584
6.94572
6.66244
1
1
1
1
1
1
1
1
1
1
1
1
1
1
1
0.999998
1.00012
1.00084
1.00759
1.05117
1.40946
2.80873
5.0868
6.70609
6.58653
1
1
1
1
1
1
1
1
1
1
1
1
1
1
1
1.00001
1.00005
1.00032
0.999782
1.01651
1.03306
1.83199
3.76737
5.96241
6.64573
1
1
1
1
1
1
1
1
1
1
1
1
1
1
1
1
1.00001
1.0001
1.00056
1.00631
1.04091
1.35777
2.59023
4.71207
6.34603
1
1
1
1
1
1
1
1
1
1
1
1
1
1
1
1
1
1.00001
1.00021
1.00087
1.01291
1.0604
1.73807
3.37557
5.41113
1
1
1
1
1
1
1
1
1
1
1
1
1
1
1
1
1
1.00001
1.00008
1.00047
1.00494
1.03205
1.28806
2.30749
4.1659
1
1
1
1
1
1
1
1
1
1
1
1
1
1
1
1
1
1
1.00001
1.00022
1.00079
1.01097
1.04714
1.58897
2.87382
1
1
1
1
1
1
1
1
1
1
1
1
1
1
1
1
1
1
1.00001
1.00006
1.00046
1.00365
1.02501
1.18682
1.97404
1
1
1
1
1
1
1
1
1
1
1
1
1
1
1
1
1
1
1
1.00002
1.0001
1.00003
1.00494
1.03641
1.35017
1
1
1
1
1
1
1
1
1
1
1
1
1
1
1
1
1
1
1
1
0.99998
0.999788
0.996274
1.01081
1.06324
1
1
1
1
1
1
1
1
1
1
1
1
1
1
1
1
1
1
1
1
1.00001
1.00002
1.00033
1.00246
1.02111
1
1
1
1
1
1
1
1
1
1
1
1
1
1
1
1
1
1
1
1
1
1.00001
1
1.00081
1.00348
1
1
1
1
1
1
1
1
1
1
1
1
1
1
1
1
1
1
1
1
1
1
1.00002
1.00019
1.00129
1
1
1
1
1
1
1
1
1
1
1
1
1
1
1
1
1
1
1
1
1
1
1
0.99998
1.00012
1
1
1
1
1
1
1
1
1
1
1
1
1
1
1
1
1
1
1
1
1
1
1
1.00001
1.00012
1
1
1
1
1
1
1
1
1
1
1
1
1
1
1
1
1
1
1
1
1
1
1
1
1.00002
1
1
1
1
1
1
1
1
1
1
1
1
1
1
1
1
1
1
1
1
1
1
1
1
1
1
1
1
1
1
1
1
1
1
1
1
1
1
1
1
1
1
1
1
1
1
1
1
1
1
1
1
1
1
1
1
1
1
1
1
1
1
1
1
1
1
1
1
1
1
1
1
1
1
1
1
1
1
1
1
1
1
1
1
1
1
1
1
1
1
1
1
1
1
1
1
1
1
1
1
1
1
1
1
1
1
1
1
1
1
1
1
1
1
1
1
1
1
1
1
1
1
1
1
1
1
1
1
1
1
1
1
1
1
1
1
1
1
1
1
1
1
1
1
1
1
1
1
1
1
1
1
1
1
1
1
1
1
1
1
1
1
1
1
1
1
1
1
1
1
1
1
1
1
1
2.72601
3.09824
3.90937
3.3183
3.55081
3.56736
3.37778
2.93842
2.60149
2.49124
2.49728
2.51786
2.52374
2.50271
2.39503
2.22121
2.10815
2.06678
2.06176
2.07236
2.08207
2.0851
2.08081
2.07536
2.06522
2.0527
2.03225
2.01932
2.01236
2.01263
2.01914
2.05172
2.10051
2.1779
2.29381
2.4424
2.60746
2.77554
2.99633
3.18697
3.35212
3.5489
3.72363
3.95005
4.15071
4.30919
4.45153
4.58122
4.69141
4.77165
4.85028
4.89711
4.91837
4.931
4.93282
4.92494
4.90674
4.88031
4.84789
4.81048
4.77014
4.72699
4.68155
4.63349
4.58365
4.53265
4.48065
4.42797
4.37512
4.32231
4.2696
4.21735
4.16598
4.11578
4.06667
4.01842
3.97109
3.92437
3.87839
3.83287
3.78804
3.74357
3.69966
3.65624
3.61348
3.57162
3.53094
3.49198
3.455
3.41981
3.38647
3.3537
3.32179
3.28966
3.2579
3.22524
3.1925
3.15733
3.12222
3.10201
4.15958
4.03538
3.62909
3.29121
3.65395
3.71486
3.59243
2.99946
2.5035
2.36657
2.41386
2.49718
2.50864
2.4524
2.33156
2.20211
2.11558
2.07449
2.07505
2.07968
2.08463
2.08912
2.08377
2.07971
2.07045
2.06445
2.04646
2.02524
2.01238
2.01468
2.02377
2.05442
2.10122
2.16811
2.26368
2.40422
2.5726
2.74113
2.97326
3.1927
3.38212
3.58338
3.73649
3.93555
4.14527
4.26159
4.39972
4.55261
4.66993
4.75778
4.83464
4.8837
4.90973
4.9243
4.92629
4.91697
4.89723
4.87095
4.84032
4.8034
4.76273
4.71973
4.67467
4.62784
4.57869
4.52779
4.4761
4.42345
4.37082
4.31841
4.26604
4.21408
4.16314
4.1132
4.06423
4.01619
3.96902
3.92246
3.87667
3.83142
3.78674
3.74237
3.69854
3.65509
3.61226
3.57031
3.52952
3.49051
3.45363
3.41869
3.38554
3.35305
3.3212
3.28926
3.25735
3.22496
3.19181
3.15624
3.11904
3.09776
4.95719
4.33072
3.96249
3.60313
3.62767
3.59364
3.24319
2.69771
2.45556
2.44026
2.50087
2.53816
2.53762
2.51878
2.45546
2.28245
2.09482
2.03604
2.03068
2.05924
2.07736
2.08628
2.07701
2.06868
2.05299
2.0478
2.02677
2.02056
2.0087
2.01389
2.01341
2.04272
2.09088
2.15726
2.2656
2.41875
2.61311
2.7324
2.94616
3.1491
3.29154
3.48862
3.67522
3.8925
4.10805
4.26301
4.38774
4.52473
4.63389
4.7242
4.79562
4.85133
4.87904
4.88771
4.89133
4.88793
4.87272
4.84805
4.81768
4.78308
4.74558
4.70646
4.66378
4.6173
4.56782
4.51688
4.46516
4.4135
4.36208
4.3108
4.25923
4.20781
4.15735
4.10797
4.05958
4.01208
3.96522
3.91893
3.87331
3.82814
3.78352
3.73929
3.69555
3.6523
3.60965
3.56783
3.52713
3.48819
3.45157
3.41707
3.38415
3.35181
3.31992
3.2881
3.25618
3.2239
3.19061
3.15457
3.11551
3.09243
5.35334
4.49514
4.03546
3.67799
3.57616
3.5579
3.31169
2.91432
2.62582
2.47958
2.45595
2.50216
2.51209
2.45207
2.30308
2.13386
2.07281
2.0559
2.06435
2.08924
2.08803
2.09584
2.08564
2.08296
2.0698
2.06781
2.05313
2.0355
1.99952
2.00651
2.01462
2.04253
2.0851
2.14064
2.23517
2.34212
2.50319
2.68406
2.89193
3.11924
3.29855
3.46331
3.64259
3.78853
3.98412
4.13645
4.29448
4.44163
4.57399
4.6617
4.74067
4.7877
4.83143
4.86
4.86819
4.85567
4.83594
4.8144
4.79133
4.76367
4.72661
4.68643
4.64459
4.60048
4.55364
4.50433
4.45272
4.40082
4.34997
4.29967
4.24939
4.19938
4.14997
4.10133
4.05355
4.00644
3.95991
3.914
3.86877
3.82414
3.77994
3.73598
3.69239
3.64928
3.6068
3.56525
3.52468
3.48584
3.4496
3.41552
3.38268
3.35056
3.31864
3.28686
3.25483
3.22249
3.18909
3.15271
3.11216
3.08694
5.53576
4.74215
4.1574
3.80061
3.67545
3.58154
3.39009
2.96071
2.58531
2.45819
2.46397
2.51918
2.51485
2.46496
2.38083
2.24834
2.13975
2.07217
2.04966
2.0651
2.07752
2.08745
2.07793
2.0703
2.05124
2.04809
2.0225
2.0132
2.00025
2.01296
2.00577
2.0273
2.07344
2.13652
2.22226
2.32624
2.45513
2.61559
2.76796
2.96444
3.15703
3.35497
3.55724
3.72852
3.88628
4.01795
4.1788
4.31458
4.46862
4.58331
4.67636
4.72274
4.77219
4.78691
4.7953
4.80137
4.79265
4.77613
4.75007
4.7248
4.69437
4.66193
4.62634
4.58326
4.53445
4.48302
4.4326
4.38396
4.33568
4.28742
4.23891
4.18981
4.14079
4.09273
4.04566
3.99927
3.95344
3.9081
3.86317
3.81863
3.77454
3.73088
3.68765
3.64502
3.60311
3.56217
3.52207
3.48349
3.44751
3.4138
3.38102
3.34874
3.31658
3.28459
3.25248
3.22011
3.18675
3.15026
3.10869
3.08191
5.68025
4.9261
4.36742
3.97963
3.79511
3.66883
3.50736
3.11994
2.74875
2.55042
2.51461
2.52686
2.52134
2.46321
2.35114
2.20157
2.10236
2.06162
2.05896
2.08083
2.08843
2.0947
2.08531
2.08092
2.06632
2.06517
2.04318
2.03491
2.00487
2.01349
2.0221
2.04692
2.07601
2.11933
2.17479
2.23016
2.29108
2.39844
2.51879
2.69013
2.86521
3.08721
3.32099
3.54254
3.72662
3.90554
4.05598
4.19015
4.3036
4.4264
4.54726
4.65117
4.71574
4.73494
4.72989
4.73665
4.73219
4.72483
4.71232
4.69628
4.67089
4.63399
4.59778
4.55794
4.5135
4.46652
4.41777
4.36814
4.31964
4.27216
4.22512
4.17777
4.13035
4.08351
4.03714
3.99117
3.94576
3.90099
3.85668
3.8128
3.76927
3.72608
3.68321
3.64099
3.59976
3.55954
3.52011
3.48195
3.44612
3.41238
3.37945
3.34701
3.31477
3.28263
3.25043
3.21787
3.1844
3.14774
3.10556
3.07774
5.79868
5.08699
4.53578
4.15783
3.89839
3.74453
3.57424
3.30006
2.99313
2.69227
2.53815
2.50913
2.50168
2.471
2.40722
2.29725
2.17056
2.09602
2.06442
2.06659
2.07532
2.08607
2.07762
2.07092
2.05641
2.05437
2.03255
2.03346
2.01329
2.04233
2.06479
2.09505
2.12204
2.1581
2.17168
2.18533
2.2175
2.25647
2.32478
2.41468
2.52827
2.68339
2.86125
3.05034
3.28264
3.56047
3.84633
4.08068
4.21915
4.31406
4.397
4.49374
4.60044
4.66505
4.69426
4.674
4.65949
4.66093
4.66204
4.65012
4.62963
4.60046
4.56764
4.53132
4.48908
4.44368
4.39747
4.3501
4.30294
4.25716
4.21142
4.16525
4.11859
4.07206
4.0264
3.98163
3.9373
3.89328
3.84948
3.80602
3.76288
3.72004
3.67765
3.6362
3.59597
3.55669
3.51801
3.48035
3.44452
3.41055
3.37744
3.34471
3.31211
3.27962
3.24709
3.21437
3.18089
3.14431
3.10193
3.07354
5.88542
5.22875
4.6932
4.29878
4.02781
3.85027
3.65879
3.41697
3.1468
2.88383
2.66946
2.57144
2.53832
2.52002
2.47095
2.35541
2.21953
2.11256
2.05664
2.05209
2.07189
2.0962
2.09667
2.08669
2.06684
2.06174
2.05176
2.05877
2.07456
2.11195
2.19729
2.2666
2.28264
2.28118
2.24607
2.20694
2.19306
2.19394
2.21914
2.24533
2.3108
2.39723
2.49889
2.61826
2.78783
3.00975
3.28081
3.62283
3.9875
4.2432
4.34925
4.40199
4.45246
4.51992
4.60108
4.60735
4.61646
4.6229
4.60822
4.58984
4.58259
4.57063
4.54447
4.50746
4.46356
4.41936
4.37477
4.33057
4.28537
4.23979
4.19479
4.15022
4.10573
4.06103
4.01606
3.9714
3.92743
3.88398
3.84077
3.79783
3.75518
3.71296
3.67156
3.63138
3.59231
3.55409
3.51635
3.47931
3.44346
3.40915
3.37579
3.34277
3.3099
3.27715
3.24438
3.21145
3.17782
3.14114
3.09849
3.06963
5.94891
5.34499
4.83144
4.42702
4.15744
3.94401
3.77085
3.55358
3.30482
3.05243
2.83208
2.66701
2.58275
2.54775
2.50257
2.4198
2.30822
2.19146
2.10721
2.0708
2.0709
2.08016
2.09199
2.08861
2.08494
2.07191
2.08583
2.08888
2.17521
2.27495
2.48682
2.58212
2.59886
2.54105
2.41931
2.31069
2.24163
2.21408
2.19916
2.20612
2.22803
2.26061
2.29448
2.35152
2.43928
2.55789
2.73643
2.98194
3.29544
3.71717
4.1588
4.39045
4.41206
4.42923
4.44475
4.50102
4.54594
4.56958
4.56906
4.55089
4.53694
4.52199
4.49853
4.47281
4.43466
4.39373
4.35151
4.30726
4.26268
4.21911
4.1763
4.13383
4.09068
4.04694
4.00325
3.95976
3.91659
3.87384
3.83134
3.78894
3.74684
3.70545
3.66507
3.62604
3.58816
3.55091
3.51391
3.47728
3.44149
3.40701
3.37346
3.34022
3.30708
3.27404
3.24097
3.20776
3.17385
3.13696
3.09394
3.06457
6.01398
5.45152
4.9589
4.56119
4.27959
4.0421
3.8717
3.67263
3.43947
3.1985
2.96667
2.76795
2.64618
2.57884
2.52515
2.47189
2.38854
2.28466
2.17957
2.10277
2.07628
2.07897
2.08983
2.08953
2.09545
2.08527
2.11787
2.14854
2.35318
2.67013
3.02999
3.07556
3.03678
2.88581
2.70469
2.54222
2.42318
2.35155
2.30124
2.26357
2.24016
2.2361
2.2331
2.2523
2.27539
2.32357
2.40334
2.51637
2.70405
3.00244
3.38652
3.88674
4.31857
4.48762
4.41826
4.3983
4.42698
4.4754
4.4934
4.49916
4.49096
4.48237
4.46048
4.43888
4.41076
4.36901
4.32593
4.28424
4.24398
4.20476
4.16417
4.12191
4.07867
4.0355
3.9927
3.9503
3.90761
3.86438
3.82133
3.7794
3.73868
3.69892
3.66007
3.6222
3.58516
3.54857
3.51209
3.47573
3.43999
3.40532
3.37146
3.33792
3.30445
3.27104
3.2376
3.20398
3.16964
3.13227
3.08857
3.05851
6.06318
5.53653
5.06408
4.6785
4.37574
4.13893
3.95773
3.76403
3.54952
3.32047
3.08897
2.88479
2.72813
2.62831
2.56913
2.51267
2.44175
2.3528
2.26447
2.18048
2.1216
2.09847
2.09446
2.09524
2.10096
2.1164
2.17264
2.30692
2.71224
3.28151
3.62984
3.61279
3.45986
3.22102
3.01357
2.84752
2.71213
2.59723
2.4998
2.41561
2.34521
2.29168
2.25036
2.23088
2.22392
2.2357
2.25091
2.28858
2.37327
2.50417
2.70935
3.0616
3.54051
4.12598
4.43449
4.4338
4.39509
4.37291
4.38541
4.42204
4.43936
4.43301
4.41528
4.38789
4.36443
4.3357
4.29956
4.26043
4.21994
4.17929
4.14103
4.10281
4.06287
4.02115
3.97838
3.93528
3.89267
3.85068
3.80916
3.7686
3.72919
3.69095
3.65374
3.61735
3.58135
3.5454
3.50927
3.47306
3.43734
3.40249
3.36831
3.33449
3.30079
3.26709
3.23329
3.19917
3.16429
3.12629
3.08178
3.05106
6.11427
5.622
5.1645
4.77502
4.46403
4.22952
4.02635
3.84641
3.65351
3.43272
3.21363
3.00767
2.83231
2.70469
2.62533
2.56977
2.49499
2.41956
2.34438
2.25903
2.18986
2.13404
2.1046
2.10098
2.11199
2.16129
2.28335
2.63254
3.31623
4.03565
4.13344
4.02105
3.76722
3.51507
3.30464
3.12971
2.97604
2.83528
2.71337
2.61122
2.52076
2.43861
2.36505
2.30224
2.25744
2.22531
2.21048
2.21392
2.22821
2.25998
2.34696
2.51353
2.78044
3.1947
3.7732
4.29213
4.49011
4.38743
4.32651
4.32758
4.35822
4.38536
4.37575
4.34608
4.32078
4.29867
4.27582
4.24438
4.20779
4.16848
4.12772
4.08781
4.04873
4.00891
3.96809
3.92624
3.88294
3.84029
3.79968
3.76088
3.72302
3.68604
3.64982
3.61418
3.57868
3.54315
3.50746
3.4715
3.43577
3.40068
3.36612
3.33191
3.29781
3.26363
3.22926
3.19449
3.15886
3.12
3.07441
3.04278
6.144
5.68329
5.24989
4.8624
4.55001
4.3062
4.09574
3.92422
3.73258
3.52886
3.32546
3.11696
2.93681
2.79207
2.68838
2.61046
2.5469
2.48467
2.40318
2.3251
2.2582
2.18276
2.12822
2.1204
2.14804
2.24448
2.51868
3.1452
4.02032
4.59609
4.4904
4.29089
4.0542
3.83342
3.62303
3.43357
3.25895
3.09848
2.95977
2.83696
2.7221
2.61787
2.52652
2.44412
2.36838
2.30124
2.24999
2.20865
2.18609
2.18444
2.2085
2.25016
2.35752
2.55922
2.89254
3.38279
4.03119
4.38601
4.41776
4.32822
4.26982
4.26059
4.28831
4.28898
4.28547
4.26138
4.23371
4.20558
4.1785
4.14766
4.11
4.06949
4.02928
3.99097
3.95191
3.91179
3.86963
3.82722
3.78762
3.75081
3.71534
3.68048
3.64569
3.61069
3.57527
3.53952
3.50359
3.46768
3.43192
3.39657
3.36153
3.32684
3.29225
3.25761
3.22271
3.18737
3.15107
3.11148
3.06482
3.03215
6.19022
5.74804
5.33175
4.95332
4.63733
4.38164
4.16756
3.98995
3.8055
3.62545
3.43202
3.22785
3.04077
2.89069
2.76198
2.66615
2.59842
2.52695
2.45939
2.39842
2.32485
2.23273
2.17496
2.17311
2.24006
2.44298
3.0034
3.92269
4.64961
4.77295
4.67946
4.50698
4.30822
4.09752
3.89162
3.69327
3.51075
3.34455
3.19229
3.05026
2.92208
2.8083
2.7048
2.60157
2.50985
2.4336
2.35786
2.28817
2.23166
2.19284
2.17616
2.1679
2.19646
2.24386
2.37555
2.63465
3.04138
3.61897
4.21666
4.44723
4.36539
4.22282
4.19063
4.21395
4.22539
4.22029
4.20947
4.18123
4.14708
4.11335
4.08249
4.05046
4.01474
3.97548
3.93442
3.89236
3.85184
3.81281
3.77546
3.74006
3.70616
3.67296
3.63962
3.60569
3.57098
3.53567
3.49983
3.46375
3.42779
3.3922
3.35678
3.32157
3.28633
3.25103
3.21541
3.17932
3.14223
3.10177
3.05397
3.0201
6.22214
5.79631
5.39681
5.02158
4.70785
4.45699
4.24139
4.05474
3.88521
3.71166
3.52441
3.3361
3.14179
2.98812
2.84958
2.73234
2.64438
2.57828
2.517
2.45964
2.37599
2.29234
2.25182
2.2777
2.43559
2.88549
3.73838
4.59739
4.90392
4.8551
4.75947
4.6313
4.47753
4.30545
4.11768
3.92721
3.73994
3.56527
3.40302
3.25305
3.11704
2.99323
2.86993
2.75856
2.66919
2.57418
2.48904
2.41443
2.34586
2.28295
2.22851
2.18233
2.15172
2.14159
2.16315
2.25595
2.41897
2.75015
3.23574
3.88377
4.30886
4.40162
4.26715
4.15269
4.11243
4.13881
4.14882
4.15383
4.12606
4.08405
4.04893
4.02041
3.99298
3.9603
3.92073
3.87527
3.83152
3.79395
3.76076
3.72877
3.69677
3.66422
3.63102
3.59763
3.56382
3.52917
3.49363
3.45754
3.42129
3.38528
3.34938
3.31367
3.27789
3.24206
3.20577
3.16886
3.13084
3.08942
3.04054
3.00559
6.26824
5.85952
5.47111
5.10048
4.77987
4.53061
4.31686
4.12925
3.9637
3.7895
3.60807
3.43162
3.24557
3.07452
2.93783
2.80867
2.70422
2.6313
2.56474
2.49598
2.41774
2.36629
2.37837
2.4875
2.84698
3.61539
4.50954
4.9451
4.93737
4.89419
4.82529
4.73205
4.6114
4.46696
4.30215
4.12285
3.94435
3.76938
3.60203
3.44437
3.29992
3.1614
3.0351
2.92831
2.81891
2.71745
2.63244
2.54778
2.46851
2.39583
2.32823
2.26305
2.19997
2.14905
2.10287
2.11376
2.15137
2.28656
2.52363
2.89273
3.42728
4.06279
4.34024
4.28855
4.14464
4.0704
4.05207
4.07948
4.08202
4.0728
4.04206
4.00451
3.96739
3.93259
3.89677
3.85761
3.81605
3.77744
3.74485
3.71577
3.6869
3.65719
3.62546
3.59173
3.55702
3.522
3.48667
3.45121
3.41539
3.37934
3.34304
3.30668
3.27
3.23322
3.19589
3.158
3.11901
3.0766
3.0265
2.99026
6.28997
5.90683
5.53218
5.1747
4.84915
4.60311
4.38946
4.1956
4.03569
3.87269
3.7012
3.51697
3.34032
3.16694
3.02491
2.89243
2.77268
2.68467
2.60632
2.53468
2.48687
2.48464
2.57377
2.88605
3.56591
4.47289
4.96349
4.98814
4.96464
4.92633
4.8734
4.79983
4.70326
4.57959
4.43704
4.28126
4.11668
3.94861
3.78215
3.6232
3.47038
3.32679
3.20455
3.08178
2.96416
2.86375
2.76093
2.66626
2.58063
2.4973
2.42111
2.34516
2.27356
2.20225
2.13701
2.08948
2.08355
2.11024
2.16838
2.32562
2.62651
3.05064
3.62987
4.13575
4.30868
4.1811
4.03968
3.97499
3.99279
4.01043
4.00745
3.99083
3.95461
3.90919
3.86726
3.83096
3.79654
3.76275
3.73154
3.70264
3.67348
3.64384
3.61412
3.58321
3.55004
3.51499
3.47872
3.44216
3.40563
3.36897
3.33209
3.29535
3.25822
3.22081
3.18281
3.1441
3.10416
3.0607
3.00946
2.97217
6.34159
5.98303
5.61437
5.26541
4.93047
4.67748
4.46617
4.26416
4.09877
3.94778
3.789
3.60953
3.43102
3.25942
3.10542
2.96832
2.84555
2.74424
2.63941
2.59865
2.59267
2.67199
2.94041
3.57675
4.51127
5.04727
5.08372
5.03575
4.98819
4.94974
4.90769
4.8511
4.77264
4.67004
4.54416
4.40652
4.25657
4.10143
3.94259
3.7882
3.63225
3.4904
3.35898
3.22851
3.10876
2.99248
2.88123
2.78148
2.68912
2.60568
2.52096
2.43668
2.359
2.28537
2.21217
2.13952
2.09045
2.05775
2.0565
2.10594
2.21229
2.39213
2.73365
3.21275
3.85441
4.18203
4.18211
4.06112
3.96571
3.92099
3.93136
3.93264
3.92441
3.90238
3.85869
3.81011
3.77217
3.74519
3.71857
3.69293
3.66534
3.63418
3.60209
3.5706
3.53894
3.50602
3.47099
3.4343
3.39672
3.3591
3.32172
3.28484
3.24753
3.20949
3.17043
3.13038
3.08906
3.04428
2.99174
2.9534
6.35221
6.04529
5.70757
5.3698
5.03563
4.7574
4.54731
4.33884
4.15755
4.01503
3.86305
3.69428
3.5195
3.35009
3.19112
3.04859
2.91704
2.78251
2.71179
2.68876
2.75298
2.99641
3.60636
4.57265
5.1957
5.25001
5.16161
5.07041
5.01598
4.97962
4.93867
4.88703
4.81866
4.73394
4.62864
4.50489
4.36872
4.22047
4.07042
3.91369
3.76585
3.63064
3.49109
3.35396
3.22224
3.09486
2.98665
2.88472
2.78667
2.69873
2.60973
2.52387
2.44355
2.36586
2.28664
2.21323
2.14832
2.09452
2.06684
2.04635
2.06236
2.11535
2.24047
2.49741
2.83811
3.34425
3.9113
4.16798
4.10814
3.96691
3.87537
3.8409
3.85243
3.86195
3.85201
3.81711
3.76977
3.72809
3.69925
3.67713
3.65369
3.62695
3.59497
3.56109
3.52724
3.49367
3.45899
3.42263
3.3846
3.34565
3.30712
3.26943
3.2316
3.19309
3.15365
3.11288
3.07054
3.02451
2.97051
2.93126
6.38134
6.09637
5.78282
5.46296
5.14124
4.83292
4.61516
4.41174
4.21352
4.06946
3.92901
3.76783
3.59217
3.42555
3.27666
3.13466
2.98667
2.86077
2.82506
2.85726
3.0563
3.63382
4.58525
5.35414
5.47344
5.35262
5.21952
5.13167
5.07449
5.02363
4.97181
4.91663
4.85461
4.78029
4.69209
4.58454
4.46223
4.32611
4.18334
4.03485
3.89083
3.74506
3.59846
3.45986
3.32877
3.20935
3.09588
2.98797
2.88508
2.78643
2.70044
2.61798
2.5344
2.44856
2.37369
2.3016
2.23529
2.17832
2.12094
2.06742
2.03153
2.02854
2.05249
2.11636
2.25193
2.54114
2.98288
3.59435
4.00517
4.06372
3.96037
3.85004
3.7974
3.78952
3.79489
3.78165
3.75476
3.71925
3.68204
3.652
3.63003
3.6088
3.58303
3.55245
3.51868
3.48318
3.4461
3.40752
3.36847
3.32916
3.29044
3.25257
3.21481
3.17593
3.13592
3.09437
3.05099
3.00384
2.94848
2.9083
6.38035
6.1565
5.88395
5.57321
5.25601
4.93352
4.68785
4.48323
4.28574
4.12982
3.9894
3.83845
3.66847
3.49492
3.3501
3.21042
3.06657
2.99285
3.00121
3.15555
3.65431
4.58637
5.51052
5.72163
5.57942
5.41421
5.29421
5.20897
5.13256
5.06511
5.0049
4.94578
4.88382
4.81464
4.73519
4.64274
4.53653
4.41841
4.2882
4.15211
4.00787
3.85875
3.71823
3.58321
3.45187
3.32876
3.20828
3.09434
2.98883
2.89039
2.79671
2.70779
2.61534
2.52725
2.4431
2.37046
2.30185
2.238
2.17672
2.11427
2.05946
2.02718
2.00835
1.98129
2.02255
2.13777
2.33399
2.66568
3.15195
3.75693
4.01685
3.99123
3.87536
3.77846
3.72943
3.72864
3.71886
3.70129
3.67851
3.64643
3.61443
3.58631
3.56158
3.53509
3.50597
3.47333
3.43613
3.39334
3.34979
3.30922
3.2704
3.23234
3.19464
3.15535
3.11427
3.07154
3.02722
2.97927
2.92302
2.88209
6.31617
6.15468
5.90641
5.64149
5.35155
5.04271
4.76555
4.55523
4.35597
4.18479
4.04956
3.90746
3.74716
3.56797
3.41132
3.27428
3.17932
3.1604
3.29185
3.73516
4.62802
5.65155
5.97336
5.81915
5.64163
5.51085
5.40852
5.30759
5.20944
5.12233
5.04811
4.98062
4.91329
4.84326
4.76768
4.68441
4.59024
4.48529
4.3679
4.24237
4.1078
3.97257
3.83373
3.69549
3.56069
3.43085
3.30957
3.19527
3.08713
2.9868
2.8882
2.79246
2.69894
2.61015
2.52294
2.44163
2.37052
2.3099
2.25223
2.19771
2.146
2.09284
2.04024
1.99213
1.95325
1.9754
2.0218
2.155
2.43971
2.82245
3.36756
3.83653
3.98424
3.89699
3.77424
3.68725
3.6476
3.64724
3.64056
3.62915
3.60928
3.5801
3.54973
3.51978
3.48949
3.45613
3.41819
3.37559
3.33021
3.28673
3.24654
3.20844
3.17105
3.13197
3.09089
3.04779
3.00283
2.95426
2.89775
2.8568
5.791
6.16891
5.94407
5.70412
5.43119
5.15077
4.85796
4.63993
4.43616
4.25402
4.11772
3.97814
3.82276
3.64777
3.47936
3.374
3.34556
3.44968
3.8522
4.70571
5.80278
6.26077
6.0779
5.87354
5.73273
5.62683
5.51671
5.39988
5.28557
5.18212
5.09345
5.0157
4.94224
4.86876
4.79279
4.71272
4.62579
4.53106
4.42664
4.31337
4.19219
4.06401
3.93134
3.79664
3.66374
3.53442
3.41056
3.29354
3.18398
3.079
2.98097
2.88158
2.78637
2.69032
2.60473
2.51718
2.44214
2.37679
2.31012
2.25512
2.19224
2.13726
2.08552
2.0276
1.968
1.93321
1.92845
1.96594
2.03979
2.20183
2.52775
3.01047
3.60967
3.88813
3.87751
3.77156
3.66814
3.60301
3.58281
3.58242
3.57927
3.57058
3.54435
3.50953
3.47216
3.43415
3.39408
3.35091
3.30559
3.26189
3.22139
3.18296
3.14557
3.10627
3.06401
3.0202
2.97513
2.9269
2.86986
2.82827
4.78837
6.00449
5.98335
5.76131
5.51669
5.24564
4.9682
4.72335
4.51755
4.3183
4.17114
4.04575
3.89286
3.71492
3.59628
3.54937
3.64108
4.01672
4.83827
5.99927
6.58121
6.37374
6.13253
5.97241
5.85972
5.74419
5.62384
5.49866
5.37633
5.26067
5.15492
5.06095
4.97649
4.89635
4.81686
4.73618
4.65225
4.56373
4.46818
4.36542
4.25444
4.13695
4.0133
3.88594
3.75682
3.62936
3.50529
3.38696
3.27438
3.16745
3.06424
2.965
2.86558
2.76581
2.6718
2.59012
2.51528
2.44151
2.3737
2.31567
2.25972
2.20814
2.15083
2.09004
2.02917
1.96735
1.92559
1.90111
1.88812
1.95107
2.09342
2.3291
2.68475
3.2066
3.68339
3.8528
3.79034
3.65697
3.56504
3.5247
3.5246
3.52432
3.51786
3.4968
3.4606
3.41164
3.36188
3.31498
3.27226
3.23235
3.19206
3.15182
3.11438
3.07604
3.03415
2.99032
2.9449
2.89748
2.84177
2.80054
3.6274
5.3443
6.01164
5.8574
5.61607
5.33456
5.08942
4.83475
4.61382
4.40292
4.22177
4.09605
3.94489
3.82249
3.76557
3.85068
4.21964
5.0371
6.2614
6.90783
6.68611
6.41547
6.22754
6.1018
5.97632
5.85015
5.72072
5.59012
5.46095
5.3357
5.21747
5.10906
5.01115
4.92264
4.83809
4.75506
4.67073
4.58424
4.49395
4.399
4.29786
4.19022
4.0762
3.95729
3.83491
3.71235
3.59162
3.47453
3.36207
3.25409
3.14955
3.04809
2.94696
2.84789
2.7515
2.6636
2.5857
2.51518
2.46025
2.3959
2.33973
2.27638
2.20948
2.1424
2.07736
2.01836
1.96416
1.91487
1.89557
1.89217
1.92291
1.99603
2.15473
2.44039
2.86097
3.42184
3.7117
3.72204
3.64761
3.55935
3.49599
3.46547
3.46389
3.4547
3.43144
3.39018
3.33787
3.28364
3.23795
3.19988
3.16267
3.12236
3.08246
3.04321
3.00027
2.9555
2.91124
2.86524
2.81036
2.76918
2.47103
4.17357
5.59474
5.90647
5.67896
5.41614
5.16421
4.93554
4.71808
4.51
4.29848
4.14785
4.02985
3.99268
4.06616
4.44218
5.29002
6.59868
7.3045
7.0594
6.75236
6.5295
6.38479
6.24697
6.10997
5.97011
5.83109
5.6943
5.55924
5.42664
5.2983
5.17577
5.06203
4.9591
4.86507
4.77542
4.6878
4.60025
4.51178
4.4207
4.32584
4.22568
4.12023
4.00999
3.89656
3.78146
3.66664
3.55305
3.44194
3.3339
3.22721
3.12203
3.01698
2.91306
2.81409
2.7226
2.64006
2.56909
2.50808
2.44369
2.38002
2.31579
2.25352
2.19131
2.12974
2.07143
2.01845
1.96773
1.91724
1.88522
1.86924
1.88085
1.93171
2.03873
2.24768
2.56952
3.01091
3.47873
3.66759
3.63948
3.54862
3.47136
3.42045
3.39542
3.37883
3.3499
3.30981
3.26225
3.21223
3.16676
3.12777
3.08821
3.04675
3.00568
2.96385
2.92006
2.87585
2.83121
2.77781
2.73673
1.61141
2.87131
4.56643
5.62827
5.65441
5.484
5.263
5.02854
4.81329
4.60195
4.36338
4.22508
4.2059
4.2854
4.66912
5.56081
6.9648
7.74683
7.48622
7.12895
6.85451
6.68349
6.53918
6.39325
6.23754
6.0823
5.934
5.79059
5.64915
5.50955
5.3731
5.24151
5.11635
5.00008
4.89345
4.79453
4.70154
4.61178
4.52221
4.43213
4.34011
4.24504
4.14608
4.04422
3.93913
3.83326
3.72578
3.61855
3.5109
3.40507
3.29953
3.19522
3.08944
2.98398
2.88369
2.79497
2.71083
2.63383
2.55878
2.49371
2.4281
2.3678
2.30703
2.2454
2.18525
2.12509
2.06941
2.01534
1.96507
1.92138
1.88285
1.86312
1.86601
1.89353
1.9559
2.06243
2.31079
2.69414
3.21089
3.51638
3.58746
3.54096
3.44627
3.36347
3.31152
3.2904
3.26268
3.22796
3.18692
3.13708
3.0887
3.04684
3.00717
2.96726
2.92638
2.88475
2.84221
2.79921
2.74592
2.70383
1.11833
1.87314
3.37875
4.95599
5.65912
5.55573
5.35618
5.14731
4.91533
4.66826
4.47462
4.38165
4.50376
4.92293
5.87316
7.39518
8.26486
7.9843
7.56306
7.23431
7.03728
6.87814
6.71989
6.55064
6.3749
6.20906
6.05065
5.89616
5.74513
5.59743
5.4537
5.31452
5.18015
5.05191
4.93123
4.81969
4.71742
4.62211
4.53036
4.43876
4.34752
4.25437
4.16049
4.06449
3.96798
3.86979
3.7714
3.67098
3.57016
3.46771
3.36565
3.26169
3.15632
3.0503
2.94825
2.85639
2.77391
2.69343
2.61751
2.54678
2.47958
2.41503
2.35232
2.29162
2.23272
2.17764
2.12588
2.07552
2.03078
1.98404
1.93882
1.89607
1.86032
1.83841
1.83671
1.86196
1.94125
2.12361
2.40068
2.83041
3.29759
3.51229
3.50192
3.41856
3.31369
3.24452
3.20111
3.17484
3.13837
3.09748
3.0521
3.00571
2.96249
2.92128
2.88159
2.8434
2.80382
2.76009
2.70838
2.6675
1.04134
1.32197
2.35121
3.89888
5.26252
5.63146
5.4551
5.22001
4.96966
4.74312
4.64494
4.71174
5.15745
6.18455
7.8207
8.75537
8.45867
7.99425
7.61592
7.39208
7.22279
7.0426
6.86273
6.67345
6.49226
6.31915
6.15131
5.9883
5.82939
5.6751
5.52503
5.3789
5.2373
5.10087
4.96989
4.84714
4.73465
4.63228
4.53611
4.44268
4.34911
4.25623
4.16362
4.07227
3.98142
3.89069
3.79928
3.70661
3.6126
3.51642
3.41855
3.31765
3.21374
3.10989
3.01049
2.91644
2.8311
2.75229
2.67815
2.6054
2.53518
2.46742
2.40249
2.34061
2.28196
2.22654
2.17302
2.12364
2.07479
2.03073
1.98486
1.93998
1.89644
1.85586
1.82657
1.81333
1.80112
1.84251
1.96578
2.19744
2.5443
3.005
3.31553
3.39298
3.3524
3.25673
3.16824
3.10861
3.07029
3.03851
3.00367
2.96065
2.9157
2.87569
2.83815
2.80111
2.76447
2.72504
2.67576
2.63373
1.00952
1.04651
1.53604
2.66137
4.21147
5.2478
5.35358
5.17783
4.97254
4.87202
4.97772
5.4696
6.57721
8.35599
9.33265
8.97828
8.45702
8.03776
7.78894
7.62062
7.42665
7.22464
7.01831
6.81751
6.62455
6.4378
6.25735
6.0837
5.91649
5.75498
5.59854
5.44643
5.29834
5.15455
5.01529
4.88218
4.7583
4.647
4.54526
4.44698
4.35079
4.25555
4.16303
4.07371
3.98754
3.90235
3.8174
3.7315
3.64405
3.55407
3.46092
3.36383
3.26295
3.16301
3.06653
2.97582
2.89133
2.81132
2.73441
2.66008
2.58862
2.52051
2.45628
2.39508
2.33732
2.27986
2.22474
2.17174
2.12316
2.07803
2.03333
1.98974
1.94725
1.9036
1.85879
1.81329
1.78234
1.75682
1.78697
1.85866
2.01135
2.28297
2.65525
3.02673
3.23608
3.24401
3.18594
3.09956
3.03018
2.98044
2.95147
2.9131
2.87017
2.83349
2.79411
2.75125
2.71339
2.67709
2.62923
2.58634