/*--------------------------------*- C++ -*----------------------------------*\
| =========                 |                                                 |
| \\      /  F ield         | OpenFOAM: The Open Source CFD Toolbox           |
|  \\    /   O peration     | Version:  v2106                                 |
|   \\  /    A nd           | Website:  www.openfoam.com                      |
|    \\/     M anipulation  |                                                 |
\*---------------------------------------------------------------------------*/
FoamFile
{
    version     2.0;
    format      ascii;
    arch        "LSB;label=32;scalar=64";
    class       surfaceScalarField;
    location    "12";
    object      phi;
}
// * * * * * * * * * * * * * * * * * * * * * * * * * * * * * * * * * * * * * //

dimensions      [1 0 -1 0 0 0 0];

oriented        oriented;

internalField   nonuniform List<scalar> 
10325
(
0.0084507
1.98138e-17
0.0084507
-2.9737e-16
0.0084507
-5.22458e-15
0.0084507
1.71243e-13
0.0084507
-5.75978e-13
0.0084507
-1.13125e-11
0.0084507
-1.20735e-11
0.0084507
3.85948e-11
0.00845062
3.53228e-10
0.00845036
3.82909e-09
0.00844522
3.07806e-08
0.00841436
3.18454e-07
0.00808623
2.63419e-06
0.00709929
2.35823e-05
0.00624793
8.42095e-05
0.00719577
0.00090723
0.00689803
0.000508847
0.00628543
0.00061258
0.00557178
0.00067197
0.00487047
0.000755097
0.00407507
0.000834404
0.00319775
0.000931276
0.00219822
0.00106264
0.00112437
0.00111972
0.0011255
0.0084507
-9.78221e-17
0.0084507
1.38369e-15
0.0084507
-5.88787e-15
0.0084507
3.08118e-13
0.0084507
7.13881e-13
0.0084507
-2.81212e-11
0.0084507
-1.00524e-11
0.0084507
4.42694e-11
0.00845063
8.7097e-10
0.00845037
6.43342e-09
0.00844537
6.34966e-08
0.00841539
6.12923e-07
0.00809502
5.233e-06
0.00711148
4.96469e-05
0.0062431
0.000180892
0.00711084
0.001862
0.00684617
0.00101837
0.00622848
0.00123297
0.00550045
0.0013584
0.0048596
0.00147773
0.00405081
0.00168464
0.0031004
0.00193536
0.00209854
0.00213175
0.00107278
0.00219204
0.00220134
0.0084507
-4.64039e-17
0.0084507
2.09679e-15
0.0084507
2.258e-14
0.0084507
1.29773e-13
0.0084507
3.02139e-12
0.0084507
8.02806e-12
0.0084507
9.70105e-11
0.0084507
-2.67304e-10
0.00845062
2.9254e-09
0.00845042
-7.61914e-10
0.00844535
1.59796e-07
0.00841826
6.71747e-07
0.00813213
-2.39005e-05
0.00717325
8.16459e-05
0.00628364
0.000278691
0.00702283
0.00284174
0.00681423
0.00158843
0.00616774
0.00188356
0.00546521
0.00203237
0.0047217
0.00226845
0.00382892
0.00262501
0.00294712
0.00288664
0.00204536
0.00310784
0.00107001
0.00322175
0.00328501
0.0084507
3.17834e-16
0.0084507
1.16064e-16
0.0084507
1.10815e-14
0.0084507
3.65406e-15
0.0084507
1.07729e-12
0.0084507
3.5999e-12
0.0084507
6.6366e-11
0.0084507
-2.56811e-10
0.00845064
2.83945e-09
0.00845039
-5.07852e-09
0.00844625
1.65612e-07
0.00842008
7.35417e-07
0.00814645
-2.61084e-05
0.0071992
0.0001099
0.00628973
0.000375617
0.0067692
0.00388439
0.0066976
0.00220535
0.00602752
0.00257685
0.00526919
0.0027847
0.00451582
0.00308722
0.00377079
0.00342301
0.0029624
0.00376182
0.00208561
0.00405518
0.00109273
0.00426393
0.00439114
0.0084507
1.17419e-16
0.0084507
1.90955e-16
0.0084507
6.28078e-15
0.0084507
-2.74447e-14
0.0084507
5.0722e-13
0.0084507
-1.47744e-12
0.0084507
3.98142e-11
0.0084507
-8.07047e-11
0.00845066
2.5578e-09
0.00845032
1.72457e-09
0.00844726
1.47838e-07
0.00842042
1.08876e-06
0.0081741
5.12894e-06
0.00724891
0.00012524
0.0063161
0.00047482
0.0065053
0.00496233
0.00649994
0.00303058
0.00583256
0.00328782
0.00510525
0.00353015
0.00448222
0.00382409
0.00377779
0.00420521
0.00300141
0.00461424
0.00211945
0.00501598
0.00112524
0.00531901
0.00554243
0.0084507
-2.00252e-16
0.0084507
5.44784e-16
0.0084507
6.38007e-15
0.0084507
-4.73799e-14
0.0084507
6.00955e-13
0.0084507
-5.00706e-13
0.0084507
4.05706e-11
0.0084507
8.84041e-11
0.00845067
2.81586e-09
0.0084504
-4.54352e-08
0.00844786
2.11262e-07
0.00842646
2.10863e-07
0.00824072
1.14429e-05
0.0073898
0.000129577
0.00644507
0.000526043
0.00637446
0.0058611
0.00651037
0.00416267
0.00587157
0.00401188
0.00516777
0.00428136
0.00452249
0.00460244
0.00386374
0.00495572
0.00308779
0.00547986
0.00222827
0.0059544
0.00120894
0.00639665
0.00678754
0.0084507
-8.82541e-17
0.0084507
3.81666e-16
0.0084507
1.22721e-15
0.0084507
-3.70339e-14
0.0084507
3.24041e-13
0.0084507
-1.40858e-12
0.0084507
2.61677e-11
0.0084507
1.58098e-10
0.00845068
1.90028e-09
0.00845046
-4.68921e-08
0.00844865
2.66233e-07
0.00843346
-2.21127e-06
0.00830518
1.22212e-05
0.00756908
0.000106928
0.00670472
0.000364072
0.00660509
0.00600934
0.00705781
0.00567502
0.00630032
0.0048087
0.0055099
0.0050974
0.00482578
0.00541953
0.0041788
0.00572791
0.00339467
0.00638208
0.00249507
0.00694754
0.00142016
0.00755736
0.00826217
0.0084507
-6.12032e-17
0.0084507
7.48886e-16
0.0084507
-1.95034e-15
0.0084507
5.05109e-14
0.0084507
-1.79646e-13
0.0084507
-1.96661e-12
0.0084507
2.95217e-11
0.0084507
-9.76683e-11
0.00845069
1.7031e-09
0.00845052
4.17052e-10
0.00844931
1.98851e-07
0.00843674
-1.47113e-06
0.00834586
9.27246e-06
0.0077106
8.05451e-05
0.00681052
0.000194462
0.00697913
0.00501604
0.00776178
0.00731896
0.00683069
0.00572608
0.00599095
0.00588814
0.00527331
0.00621865
0.00457626
0.00648317
0.00373223
0.00730786
0.00279265
0.00797569
0.00159103
0.00882644
0.00996861
0.0084507
7.87402e-17
0.0084507
2.66063e-16
0.0084507
4.86097e-15
0.0084507
4.23207e-14
0.0084507
-4.24429e-14
0.0084507
2.05631e-12
0.0084507
2.6192e-11
0.0084507
-1.41574e-10
0.00845069
1.7145e-09
0.00845059
1.46745e-09
0.00844988
9.22974e-08
0.00843936
6.11503e-07
0.00837462
6.47133e-06
0.0078339
6.21668e-05
0.00680613
0.000196751
0.00720086
0.00361798
0.00875126
0.00831546
0.00773009
0.00669889
0.0068351
0.00671191
0.00601986
0.00709417
0.0052671
0.00727452
0.0045005
0.00815652
0.00357382
0.00901454
0.00242478
0.0100757
0.0125699
0.0084507
1.2799e-16
0.0084507
-4.86536e-17
0.0084507
5.42695e-15
0.0084507
2.29529e-14
0.0084507
3.12733e-13
0.0084507
2.48522e-12
0.0084507
3.23721e-12
0.0084507
7.41271e-11
0.0084507
6.64514e-10
0.00845059
6.01466e-09
0.00845019
5.17996e-08
0.0084426
5.2595e-07
0.00839771
4.50313e-06
0.00795439
4.93801e-05
0.00689138
0.000261032
0.00703451
0.00247398
0.00916766
0.00870917
0.00863913
0.00715128
0.00785073
0.00739528
0.00696681
0.00797407
0.00611047
0.00815056
0.00526634
0.00901974
0.00427194
0.0100596
0.00267227
0.0117435
0.0157679
0.0084507
9.31059e-17
0.0084507
-1.5767e-16
0.0084507
5.43193e-15
0.0084507
1.41506e-14
0.0084507
3.70033e-13
0.0084507
2.20878e-12
0.0084507
-1.00584e-11
0.0084507
1.54407e-10
0.0084507
-2.90752e-10
0.00845061
7.85338e-09
0.00845041
-1.63109e-08
0.00844453
4.89545e-07
0.00841414
3.66719e-06
0.00809124
6.32097e-06
0.00711401
0.000288897
0.00685357
0.00175657
0.00898106
0.00867866
0.00884445
0.00746879
0.0085178
0.00776477
0.00785546
0.00860599
0.00709965
0.00891182
0.00634443
0.0098354
0.00592492
0.0106637
0.00578875
0.0122563
0.0134385
0.00893346
0.0084507
1.72117e-17
0.0084507
9.13711e-17
0.0084507
1.74754e-15
0.0084507
6.72246e-15
0.0084507
2.00417e-13
0.0084507
1.23854e-12
0.0084507
3.47934e-12
0.0084507
1.0138e-11
0.0084507
1.72693e-10
0.00845065
7.67369e-09
0.00845025
-2.73307e-08
0.00844678
5.45561e-07
0.00842316
-5.96667e-06
0.00819408
9.78323e-07
0.00732249
0.000261208
0.00679654
0.00129751
0.00849396
0.00835115
0.00896682
0.00786919
0.00888984
0.00792663
0.00851454
0.00889169
0.00798419
0.00941802
0.00757315
0.0102726
0.00762009
0.0106389
0.00807683
0.0116089
0.0119909
0.0104207
0.0084507
-8.40257e-18
0.0084507
1.54661e-16
0.0084507
1.50428e-15
0.0084507
8.62759e-15
0.0084507
7.74142e-15
0.0084507
8.01779e-13
0.0084507
6.14565e-12
0.0084507
-6.30384e-11
0.0084507
4.19156e-10
0.00845068
4.88397e-09
0.00845044
1.633e-09
0.0084487
4.0987e-07
0.00843223
-7.67273e-06
0.00828528
2.20297e-05
0.00755606
0.000181839
0.00689154
0.00092498
0.00785674
0.00771502
0.00879776
0.00868384
0.00867871
0.00809194
0.00875559
0.00881186
0.00868088
0.00945673
0.00859235
0.0103106
0.00878556
0.0106031
0.00930784
0.0110487
0.0111154
0.0108101
0.0084507
-2.27682e-18
0.0084507
3.63479e-17
0.0084507
2.14238e-16
0.0084507
5.18121e-15
0.0084507
2.86368e-15
0.0084507
4.93078e-13
0.0084507
-1.51284e-12
0.0084507
4.25346e-11
0.0084507
6.85236e-11
0.00845068
2.63309e-09
0.00845064
7.90889e-09
0.00844954
1.69102e-07
0.0084353
9.42569e-07
0.00836238
1.05414e-05
0.00782404
0.000107864
0.00709742
0.000522469
0.0079377
0.00582924
0.00929021
0.0100042
0.00890887
0.00850744
0.00889959
0.00880256
0.00897486
0.00937103
0.00924363
0.0100594
0.00958599
0.0103985
0.0100658
0.0106658
0.0103812
0.0112663
0.0084507
1.73472e-18
0.0084507
6.73018e-17
0.0084507
2.63976e-16
0.0084507
2.67665e-15
0.0084507
3.71193e-14
0.0084507
-3.78161e-14
0.0084507
7.16182e-13
0.0084507
1.66104e-11
0.0084507
1.07571e-10
0.0084507
1.06008e-09
0.00845059
7.41118e-09
0.0084502
8.68632e-08
0.00844275
6.91798e-07
0.00839904
6.68151e-06
0.00797624
7.26468e-05
0.00704462
0.000419218
0.0078154
0.00389699
0.0100976
0.0106703
0.00953246
0.0091783
0.00928853
0.00905126
0.00931291
0.00935361
0.00958763
0.00984247
0.0100467
0.0100651
0.0105312
0.0102614
0.00976085
0.0114728
0.0084507
1.17094e-17
0.0084507
1.5599e-16
0.0084507
-1.64663e-16
0.0084507
5.42901e-15
0.0084507
2.16798e-14
0.0084507
2.42512e-13
0.0084507
5.43627e-12
0.0084507
-4.42137e-12
0.0084507
1.5621e-10
0.0084507
1.24423e-10
0.00845063
8.32738e-09
0.00845043
3.20547e-08
0.00844574
5.72015e-07
0.00842124
3.62937e-06
0.00814209
4.45555e-05
0.00725895
0.00036296
0.00749095
0.0024476
0.0103493
0.00978662
0.0103214
0.00985274
0.00993791
0.0096038
0.0097422
0.00957272
0.00984767
0.00975164
0.01021
0.00977044
0.0107153
0.00985018
0.00939358
0.0113583
0.0084507
2.1684e-18
0.0084507
8.68175e-17
0.0084507
-8.41883e-17
0.0084507
1.68081e-15
0.0084507
6.7262e-15
0.0084507
1.56497e-13
0.0084507
3.97191e-12
0.0084507
-1.44277e-12
0.0084507
1.05126e-10
0.0084507
2.05692e-10
0.00845067
5.48859e-09
0.00845042
2.40945e-08
0.00844828
3.5643e-07
0.00842987
2.30548e-06
0.00828607
2.45695e-05
0.00758804
0.000239834
0.00739124
0.00141267
0.00942853
0.0082533
0.0105749
0.0104185
0.0103626
0.00996633
0.0101388
0.00974491
0.0101246
0.00973706
0.0103475
0.00961604
0.010769
0.00951701
0.00913709
0.0112574
0.0084507
-2.71051e-20
0.0084507
2.16027e-17
0.0084507
8.90943e-17
0.0084507
6.59412e-16
0.0084507
1.29321e-14
0.0084507
1.95088e-14
0.0084507
1.02042e-12
0.0084507
6.9846e-12
0.0084507
9.99514e-12
0.0084507
3.60335e-10
0.0084507
1.0004e-09
0.00845051
2.30236e-08
0.00845011
1.49454e-07
0.00843857
1.20833e-06
0.00837999
1.74185e-05
0.0080055
-5.01495e-05
0.00738055
0.0009407
0.0086534
0.00580716
0.0109188
0.0109969
0.0107587
0.0101788
0.0106405
0.00991318
0.0106024
0.00980216
0.0107041
0.0096059
0.0109397
0.0093782
0.00894671
0.0113029
0.0084507
-1.49078e-18
0.0084507
1.18178e-17
0.0084507
2.26327e-17
0.0084507
3.94677e-16
0.0084507
6.29447e-15
0.0084507
-1.31268e-14
0.0084507
5.04188e-13
0.0084507
4.25972e-12
0.0084507
2.47056e-12
0.0084507
2.01684e-10
0.0084507
3.09734e-11
0.00845063
1.25083e-08
0.00845006
7.20984e-08
0.00844501
5.15207e-07
0.00840517
1.10028e-05
0.0081058
-0.000104092
0.00737296
0.000592495
0.00833889
0.00354344
0.0113433
0.0103235
0.0114194
0.0106441
0.0112488
0.0103314
0.0110731
0.0100163
0.0110425
0.00969836
0.0111347
0.00935462
0.0088682
0.0113507
0.0084507
-1.27394e-18
0.0084507
3.55076e-18
0.0084507
6.27482e-17
0.0084507
-3.72911e-16
0.0084507
2.82643e-15
0.0084507
4.34821e-14
0.0084507
9.98677e-14
0.0084507
2.46365e-12
0.0084507
6.43601e-13
0.0084507
1.08803e-10
0.0084507
1.35329e-09
0.00845067
5.95813e-09
0.00845033
7.64419e-08
0.00845062
2.83202e-07
0.00842343
3.56713e-06
0.0082035
4.1342e-05
0.00778878
-0.000159642
0.00814337
0.00205519
0.0107136
0.00855608
0.0118955
0.0112863
0.0117024
0.0108056
0.0115197
0.0101806
0.0114347
0.00979857
0.0114453
0.00940321
0.00890666
0.011525
0.0084507
4.60786e-19
0.0084507
1.51788e-18
0.0084507
2.01391e-17
0.0084507
-6.07831e-16
0.0084507
2.29138e-15
0.0084507
2.00674e-14
0.0084507
3.75013e-14
0.0084507
1.09685e-12
0.0084507
-4.99172e-12
0.0084507
7.65023e-11
0.0084507
5.88245e-10
0.00845069
2.41341e-09
0.00845058
3.14972e-08
0.00844966
8.16601e-08
0.00844195
1.11736e-06
0.00838172
2.34573e-05
0.00800315
-0.000310642
0.00748138
0.00124946
0.00913635
0.00569836
0.0119112
0.0113498
0.0118291
0.0108624
0.0118861
0.0103006
0.011816
0.00992645
0.0117797
0.00949001
0.00899069
0.0117891
0.0084507
4.87891e-19
0.0084507
6.04443e-18
0.0084507
8.70072e-18
0.0084507
2.84142e-16
0.0084507
3.98986e-16
0.0084507
1.33473e-14
0.0084507
1.448e-14
0.0084507
7.77938e-13
0.0084507
6.30159e-12
0.0084507
1.02794e-11
0.0084507
3.33473e-10
0.0084507
1.24522e-09
0.00845054
1.89825e-08
0.00845063
1.59818e-07
0.00845149
4.01887e-07
0.00840671
6.85052e-06
0.00799423
5.93831e-05
0.00774035
-0.000152919
0.00894792
0.00344234
0.0121122
0.00977751
0.0127006
0.0113894
0.0125054
0.0107925
0.0123352
0.0101656
0.0122149
0.00967392
0.00915281
0.012128
0.0084507
5.42101e-20
0.0084507
3.33392e-18
0.0084507
-1.07607e-17
0.0084507
1.76102e-16
0.0084507
2.4793e-16
0.0084507
6.07465e-15
0.0084507
-1.43932e-14
0.0084507
3.16532e-13
0.0084507
3.47272e-12
0.0084507
6.84742e-12
0.0084507
1.18305e-10
0.0084507
3.47315e-10
0.00845068
7.13221e-09
0.00845052
8.42974e-08
0.00844909
8.66409e-08
0.00843745
2.24798e-06
0.00835046
3.41988e-05
0.0079304
-0.0004393
0.00795189
0.00193302
0.0103042
0.00719664
0.0127147
0.0115167
0.0126971
0.0109832
0.0127071
0.0103262
0.0125846
0.00988691
0.00934717
0.0124626
0.0084507
1.0842e-19
0.0084507
-5.69206e-19
0.0084507
3.06287e-18
0.0084507
3.45047e-17
0.0084507
1.26852e-16
0.0084507
1.15592e-15
0.0084507
1.36094e-14
0.0084507
1.03695e-13
0.0084507
6.08966e-13
0.0084507
3.56927e-12
0.0084507
-3.98773e-12
0.0084507
3.72092e-10
0.0084507
1.80467e-09
0.00845054
3.23685e-08
0.0084507
2.14355e-07
0.00845258
7.58485e-07
0.008398
9.98257e-06
0.00789059
8.06889e-05
0.00776495
0.000131829
0.0095611
0.00442523
0.0130157
0.010383
0.0134474
0.0113568
0.0132668
0.0108384
0.0130292
0.0101752
0.00959056
0.0128258
0.0084507
1.89735e-19
0.0084507
7.58942e-19
0.0084507
1.16552e-18
0.0084507
1.10589e-17
0.0084507
2.44488e-17
0.0084507
5.36301e-16
0.0084507
4.79686e-15
0.0084507
2.94259e-14
0.0084507
-4.98758e-14
0.0084507
1.04043e-12
0.0084507
-2.09251e-11
0.0084507
2.09303e-10
0.0084507
1.7231e-10
0.00845068
1.30998e-08
0.00845046
1.0546e-07
0.00844865
1.65221e-07
0.00843394
3.09616e-06
0.00832087
4.51096e-05
0.00798641
-0.000353104
0.00849739
0.00230288
0.0115482
0.00780104
0.0136186
0.0115498
0.0134521
0.0112108
0.0133488
0.0103575
0.00984285
0.0131481
0.0084507
1.6263e-19
0.0084507
5.14996e-19
0.0084507
-1.76183e-18
0.0084507
1.32815e-17
0.0084507
2.20093e-17
0.0084507
3.54805e-16
0.0084507
-5.35596e-17
0.0084507
2.48765e-14
0.0084507
3.78289e-14
0.0084507
1.34287e-12
0.0084507
1.2346e-11
0.0084507
3.40459e-11
0.0084507
5.91624e-10
0.0084507
3.15357e-09
0.00845048
4.02153e-08
0.00845067
2.91104e-07
0.00845258
1.1018e-06
0.00839952
1.22556e-05
0.00792488
0.000101033
0.00789193
0.000242041
0.00988415
0.00481243
0.0135723
0.0103527
0.0139527
0.0113848
0.0137326
0.0108549
0.0101252
0.0134706
0.0084507
-1.0842e-19
0.0084507
0
0.0084507
-2.05998e-18
0.0084507
8.91756e-18
0.0084507
-3.25261e-19
0.0084507
1.2406e-16
0.0084507
-5.16189e-16
0.0084507
1.11183e-14
0.0084507
-2.22938e-14
0.0084507
4.25661e-13
0.0084507
6.36268e-12
0.0084507
1.353e-11
0.0084507
2.09933e-10
0.0084507
1.00573e-09
0.00845068
1.58788e-08
0.00845048
1.07766e-08
0.00844855
3.32059e-07
0.00843416
1.51186e-06
0.00832613
4.77784e-05
0.00806643
-0.000383624
0.0087536
0.00253069
0.0120137
0.00785811
0.0140341
0.0114626
0.013852
0.0111695
0.0102942
0.0137625
0.0084507
2.71051e-19
0.0084507
9.75782e-19
0.0084507
1.24683e-18
0.0084507
1.24683e-18
0.0084507
9.02598e-18
0.0084507
6.49979e-17
0.0084507
1.36962e-16
0.0084507
3.62525e-15
0.0084507
1.47718e-14
0.0084507
1.45683e-13
0.0084507
1.39328e-12
0.0084507
6.6586e-12
0.0084507
8.65718e-11
0.0084507
6.38684e-10
0.00845069
6.07218e-09
0.00845061
-9.77191e-08
0.00844951
2.90898e-07
0.00844144
1.93627e-06
0.0084416
1.40847e-05
0.00797064
9.24587e-05
0.00785943
0.000448733
0.00989859
0.0047683
0.0136913
0.0100156
0.0142147
0.0112508
0.0107235
0.0140405
0.0084507
-2.1684e-19
0.0084507
2.71051e-20
0.0084507
-8.67362e-19
0.0084507
-1.0571e-18
0.0084507
1.54499e-18
0.0084507
3.40168e-17
0.0084507
1.31731e-17
0.0084507
1.56849e-15
0.0084507
2.771e-15
0.0084507
7.14725e-14
0.0084507
3.55851e-13
0.0084507
2.64786e-12
0.0084507
2.23269e-11
0.0084507
1.24467e-10
0.0084507
1.42172e-09
0.00845063
1.10264e-08
0.0084504
7.28314e-08
0.00844874
8.50811e-07
0.00843504
2.32151e-06
0.00834809
3.37678e-05
0.00813467
-0.000270251
0.00892956
0.0024468
0.0120814
0.00751038
0.0142799
0.0111716
0.010943
0.0141511
0.0084507
-2.71051e-19
0.0084507
1.0842e-19
0.0084507
-1.21973e-18
0.0084507
-1.54499e-18
0.0084507
-1.54499e-18
0.0084507
6.77626e-18
0.0084507
3.33392e-17
0.0084507
2.81459e-16
0.0084507
1.87253e-15
0.0084507
1.31749e-14
0.0084507
1.3406e-13
0.0084507
7.42186e-13
0.0084507
5.9223e-12
0.0084507
-1.87498e-12
0.0084507
4.27785e-10
0.0084507
2.7141e-09
0.00845054
3.6338e-08
0.00845129
2.56907e-07
0.00845198
1.38105e-06
0.00840144
1.56302e-05
0.00804454
8.67535e-05
0.00773686
0.000772738
0.00983587
0.00428758
0.0138153
0.00933064
0.0109928
0.0145355
0.0084507
8.13152e-20
0.0084507
-1.35525e-19
0.0084507
-2.98156e-19
0.0084507
3.61112e-35
0.0084507
-1.0842e-19
0.0084507
2.05998e-18
0.0084507
6.34258e-18
0.0084507
1.18395e-16
0.0084507
3.87385e-16
0.0084507
7.17425e-15
0.0084507
2.39903e-14
0.0084507
6.10019e-14
0.0084507
2.98025e-12
0.0084507
2.81012e-11
0.0084507
1.55377e-10
0.0084507
2.01576e-09
0.00845071
1.06902e-08
0.00845046
1.01607e-07
0.00845013
1.67113e-07
0.00843826
5.25904e-06
0.00838627
2.25273e-05
0.00819574
4.00335e-05
0.00890571
0.00205972
0.011873
0.00672101
0.0106385
0.0145073
0.0084507
-2.43945e-19
0.0084507
-5.96311e-19
0.0084507
-4.60786e-19
0.0084507
-2.71051e-20
0.0084507
5.96311e-19
0.0084507
1.89735e-19
0.0084507
5.8818e-18
0.0084507
2.71864e-17
0.0084507
1.68566e-16
0.0084507
2.77914e-15
0.0084507
4.009e-15
0.0084507
1.64496e-13
0.0084507
1.12246e-12
0.0084507
6.97264e-12
0.0084507
8.79161e-11
0.00845071
5.78666e-10
0.0084507
2.24941e-09
0.00845074
2.28933e-08
0.00845
1.79321e-07
0.00845152
1.50323e-06
0.00841363
1.25455e-05
0.00822651
9.18821e-05
0.00785763
0.000830577
0.00977178
0.00365172
0.00832639
0.0137817
0.0084507
-4.60786e-19
0.0084507
-6.23416e-19
0.0084507
-1.00289e-18
0.0084507
-1.21973e-18
0.0084507
-1.78893e-18
0.0084507
-3.06287e-18
0.0084507
-1.02999e-18
0.0084507
1.00289e-18
0.0084507
5.16351e-17
0.0084507
6.04903e-16
0.0084507
3.84474e-15
0.0084507
2.75205e-14
0.0084507
4.17492e-13
0.0084507
2.4378e-13
0.0084507
2.02524e-11
0.0084507
9.01182e-11
0.0084507
1.07818e-09
0.0084507
4.80862e-09
0.00845052
6.7438e-08
0.00845035
3.15515e-07
0.00844149
4.24606e-06
0.00841546
2.43126e-05
0.00831702
0.000112762
0.00879936
0.00167879
0.00578583
0.0112346
0.0084507
-2.98156e-19
0.0084507
2.43945e-19
0.0084507
-5.42101e-20
0.0084507
8.13152e-20
0.0084507
-7.31836e-19
0.0084507
-8.13152e-19
0.0084507
-8.13152e-19
0.0084507
7.34547e-18
0.0084507
-2.38524e-17
0.0084507
1.84965e-16
0.0084507
9.1485e-16
0.0084507
-4.98614e-15
0.0084507
1.07122e-13
0.0084507
-9.81157e-14
0.0084507
5.31974e-12
0.0084507
2.76382e-11
0.0084507
1.33816e-10
0.00845069
1.94697e-09
0.00845074
1.73114e-08
0.00845024
1.43633e-07
0.00845212
1.28314e-06
0.0084301
5.98488e-06
0.00836564
7.21433e-05
0.00801554
0.000598554
0.00294668
0.00963199
0.0084507
-1.0842e-19
0.0084507
3.79471e-19
0.0084507
9.48677e-19
0.0084507
5.96311e-19
0.0084507
8.40257e-19
0.0084507
8.40257e-19
0.0084507
2.76472e-18
0.0084507
6.966e-18
0.0084507
-2.74845e-17
0.0084507
4.82741e-17
0.0084507
3.75161e-16
0.0084507
-1.12107e-16
0.0084507
2.57302e-14
0.0084507
1.50385e-13
0.0084507
1.64349e-12
0.0084507
1.00954e-11
0.0084507
-3.54488e-11
0.0084507
7.75452e-10
0.00845069
4.48851e-09
0.0084506
3.63793e-08
0.00845006
3.76062e-07
0.00844568
-7.14183e-07
0.0084596
-2.25821e-05
0.00841501
0.000148668
0.00121687
0.00868358
0.0084507
4.60786e-19
0.0084507
2.1684e-19
0.0084507
2.98156e-19
0.0084507
8.13152e-19
0.0084507
1.54499e-18
0.0084507
9.48677e-19
0.0084507
3.1984e-18
0.0084507
2.81893e-18
0.0084507
3.84892e-18
0.0084507
2.48553e-17
0.0084507
1.01075e-16
0.0084507
-1.89502e-15
0.0084507
9.49845e-15
0.0084507
4.82227e-14
0.0084507
4.47169e-13
0.0084507
4.11218e-12
0.0084507
3.28439e-11
0.0084507
1.60977e-10
0.0084507
1.2685e-09
0.0084507
1.82121e-08
0.00845082
1.09441e-07
0.00844723
8.26478e-07
0.00843625
-3.2518e-05
0.00841475
6.28895e-05
0.000270762
0.00835894
0.0084507
1.0842e-19
0.0084507
3.79471e-19
0.0084507
-8.13152e-20
0.0084507
4.60786e-19
0.0084507
4.06576e-19
0.0084507
5.69206e-19
0.0084507
1.81604e-18
0.0084507
3.71339e-18
0.0084507
3.14419e-18
0.0084507
1.55854e-17
0.0084507
2.48553e-17
0.0084507
5.21013e-16
0.0084507
2.50668e-15
0.0084507
1.69643e-14
0.0084507
1.71221e-13
0.0084507
1.4119e-12
0.0084507
1.14795e-11
0.0084507
7.76995e-11
0.0084507
3.05168e-10
0.00845072
4.9433e-09
0.00845087
1.03257e-08
0.00845193
-2.62154e-08
0.00842637
-2.80612e-07
0.00842893
1.19494e-05
6.9233e-05
0.00848756
0.0084507
-2.43945e-19
0.0084507
1.89735e-19
0.0084507
-1.0842e-19
0.0084507
6.23416e-19
0.0084507
8.40257e-19
0.0084507
8.40257e-19
0.0084507
1.00289e-18
0.0084507
1.68051e-18
0.0084507
-2.71051e-20
0.0084507
2.43945e-18
0.0084507
1.18178e-17
0.0084507
1.9185e-16
0.0084507
2.07028e-16
0.0084507
9.67653e-15
0.0084507
6.50303e-14
0.0084507
1.59372e-13
0.0084507
4.13878e-12
0.0084507
2.7253e-11
0.0084507
1.49205e-10
0.0084507
8.53235e-10
0.00845069
2.56496e-09
0.00845062
1.68246e-08
0.00844981
-3.57153e-07
0.00844909
2.58761e-06
-7.12885e-06
0.00846436
0.0084507
4.06576e-19
0.0084507
7.58942e-19
0.0084507
8.40257e-19
0.0084507
1.0842e-19
0.0084507
1.35525e-19
0.0084507
-1.11131e-18
0.0084507
-2.03288e-18
0.0084507
-2.41235e-18
0.0084507
-3.57787e-18
0.0084507
-3.60497e-18
0.0084507
4.8247e-18
0.0084507
6.90095e-17
0.0084507
-2.35435e-16
0.0084507
2.46564e-15
0.0084507
2.08552e-14
0.0084507
1.43036e-13
0.0084507
4.70631e-13
0.0084507
9.28047e-12
0.0084507
8.9811e-12
0.0084507
-2.99656e-10
0.0084507
1.93319e-09
0.00845067
9.76983e-09
0.00845046
7.55283e-08
0.00844931
4.43365e-07
6.21366e-06
0.00843269
0.0084507
1.6263e-19
0.0084507
1.0842e-19
0.0084507
5.14996e-19
0.0084507
-7.04731e-19
0.0084507
-3.79471e-19
0.0084507
-1.5992e-18
0.0084507
-2.22261e-18
0.0084507
-1.97867e-18
0.0084507
-1.78893e-18
0.0084507
-9.21572e-19
0.0084507
8.40257e-19
0.0084507
2.62106e-17
0.0084507
6.78711e-17
0.0084507
-4.56558e-16
0.0084507
7.46695e-15
0.0084507
1.63299e-14
0.0084507
2.13265e-13
0.0084507
2.33087e-12
0.0084507
-7.14279e-13
0.0084507
6.91596e-11
0.0084507
4.58984e-10
0.0084507
3.44134e-09
0.00845067
1.92634e-08
0.00845054
-6.22837e-08
1.85063e-06
0.008452
0.0084507
-2.43945e-19
0.0084507
-7.86047e-19
0.0084507
-3.52366e-19
0.0084507
2.71051e-20
0.0084507
3.79471e-19
0.0084507
3.79471e-19
0.0084507
6.23416e-19
0.0084507
5.42101e-19
0.0084507
1.02999e-18
0.0084507
1.0571e-18
0.0084507
-8.13152e-20
0.0084507
7.04731e-18
0.0084507
2.61835e-17
0.0084507
2.28496e-16
0.0084507
1.63029e-15
0.0084507
8.66364e-15
0.0084507
8.93099e-14
0.0084507
5.89276e-13
0.0084507
2.64966e-13
0.0084507
8.14012e-12
0.0084507
1.38796e-10
0.00845071
8.07566e-10
0.00845072
3.90533e-09
0.0084507
3.78613e-08
2.85444e-07
0.00845231
0.0084507
4.60786e-19
0.0084507
4.06576e-19
0.0084507
6.50521e-19
0.0084507
8.67362e-19
0.0084507
8.94467e-19
0.0084507
6.23416e-19
0.0084507
1.0842e-18
0.0084507
9.75782e-19
0.0084507
1.19262e-18
0.0084507
7.58942e-19
0.0084507
2.98156e-19
0.0084507
3.52366e-19
0.0084507
8.78204e-18
0.0084507
6.21519e-17
0.0084507
3.43882e-16
0.0084507
2.32429e-15
0.0084507
2.29677e-14
0.0084507
1.35751e-13
0.0084507
6.15858e-13
0.0084507
3.70991e-12
0.0084507
4.17605e-11
0.0084507
5.51538e-11
0.0084507
1.47884e-09
0.00845073
4.1106e-09
5.5918e-08
0.0084505
0.0084507
1.0842e-19
0.0084507
-1.0842e-19
0.0084507
-5.14996e-19
0.0084507
-1.32815e-18
0.0084507
-9.75782e-19
0.0084507
-9.21572e-19
0.0084507
-4.33681e-19
0.0084507
-1.89735e-19
0.0084507
-2.71051e-19
0.0084507
-2.1684e-19
0.0084507
-6.23416e-19
0.0084507
-1.49078e-18
0.0084507
5.69206e-19
0.0084507
9.97466e-18
0.0084507
1.00153e-16
0.0084507
5.2619e-16
0.0084507
4.6341e-15
0.0084507
2.55553e-14
0.0084507
1.63149e-13
0.0084507
1.68119e-12
0.0084507
1.59683e-11
0.0084507
1.85336e-11
0.00845071
7.42341e-10
0.00845071
1.30681e-09
3.10168e-08
0.00845066
0.0084507
-4.06576e-19
0.0084507
-9.75782e-19
0.0084507
-8.40257e-19
0.0084507
-1.32815e-18
0.0084507
-1.43657e-18
0.0084507
-1.40946e-18
0.0084507
-1.30104e-18
0.0084507
-2.22261e-18
0.0084507
-2.52077e-18
0.0084507
-2.41235e-18
0.0084507
-2.46656e-18
0.0084507
-3.08998e-18
0.0084507
-2.84603e-18
0.0084507
-8.40257e-19
0.0084507
2.2199e-17
0.0084507
1.10074e-16
0.0084507
1.61698e-15
0.0084507
5.688e-16
0.0084507
5.4493e-14
0.0084507
2.33989e-13
0.0084507
3.15534e-12
0.0084507
1.69907e-11
0.0084507
3.09824e-10
0.00845071
-4.93725e-10
4.62325e-09
0.00845073
0.0084507
-1.35525e-19
0.0084507
-2.71051e-19
0.0084507
-1.6263e-19
0.0084507
-2.71051e-20
0.0084507
1.0842e-19
0.0084507
-3.79471e-19
0.0084507
-1.89735e-19
0.0084507
-1.02999e-18
0.0084507
-1.21973e-18
0.0084507
-2.00577e-18
0.0084507
-2.27682e-18
0.0084507
-2.30393e-18
0.0084507
-1.73472e-18
0.0084507
-1.70762e-18
0.0084507
2.05998e-18
0.0084507
3.46945e-17
0.0084507
4.07009e-16
0.0084507
1.72749e-15
0.0084507
1.30287e-14
0.0084507
1.06366e-13
0.0084507
7.37831e-13
0.0084507
1.66283e-12
0.0084507
2.63386e-11
0.0084507
6.3442e-11
8.51054e-12
0.00845071
0.0084507
2.43945e-19
0.0084507
1.89735e-19
0.0084507
1.6263e-19
0.0084507
1.35525e-19
0.0084507
1.89735e-19
0.0084507
-5.96311e-19
0.0084507
-9.48677e-19
0.0084507
-1.24683e-18
0.0084507
-1.70762e-18
0.0084507
-2.05998e-18
0.0084507
-2.1684e-18
0.0084507
-2.38524e-18
0.0084507
-2.1413e-18
0.0084507
-2.52077e-18
0.0084507
-7.86047e-19
0.0084507
6.74916e-18
0.0084507
9.90419e-17
0.0084507
2.2817e-16
0.0084507
7.3826e-16
0.0084507
2.34989e-14
0.0084507
1.10814e-13
0.0084507
6.23311e-13
0.0084507
6.74426e-12
0.0084507
2.4964e-11
-1.9447e-10
0.0084507
0.0084507
1.89735e-19
0.0084507
5.96311e-19
0.0084507
5.42101e-19
0.0084507
5.42101e-19
0.0084507
7.31836e-19
0.0084507
2.71051e-19
0.0084507
-3.79471e-19
0.0084507
-5.69206e-19
0.0084507
-5.42101e-19
0.0084507
-8.67362e-19
0.0084507
-8.40257e-19
0.0084507
-1.81604e-18
0.0084507
-2.46656e-18
0.0084507
-2.81893e-18
0.0084507
-2.81893e-18
0.0084507
-1.87025e-18
0.0084507
-5.39391e-18
0.0084507
-1.56125e-16
0.0084507
1.45492e-15
0.0084507
-6.49166e-15
0.0084507
2.6276e-14
0.0084507
-7.5545e-13
0.0084507
-2.04565e-12
0.0084507
1.97224e-11
-5.55334e-11
0.0084507
0.0084507
7.52316e-36
0.0084507
2.43945e-19
0.0084507
1.89735e-19
0.0084507
5.42101e-20
0.0084507
1.0842e-19
0.0084507
2.71051e-20
0.0084507
5.42101e-19
0.0084507
8.13152e-19
0.0084507
9.48677e-19
0.0084507
-8.13152e-20
0.0084507
-1.6263e-19
0.0084507
-1.5992e-18
0.0084507
-2.03288e-18
0.0084507
-2.49366e-18
0.0084507
-2.60209e-18
0.0084507
-2.19551e-18
0.0084507
-1.32815e-18
0.0084507
-4.90601e-17
0.0084507
3.69496e-16
0.0084507
-1.7502e-15
0.0084507
5.77395e-15
0.0084507
-1.5874e-13
0.0084507
-5.3361e-13
0.0084507
7.80735e-12
-2.36756e-11
0.0084507
0.0084507
-3.52366e-19
0.0084507
-7.58942e-19
0.0084507
-1.68051e-18
0.0084507
-2.03288e-18
0.0084507
-2.41235e-18
0.0084507
-2.62919e-18
0.0084507
-2.11419e-18
0.0084507
-2.24972e-18
0.0084507
-1.92446e-18
0.0084507
-1.6263e-18
0.0084507
-1.0842e-18
0.0084507
-6.77626e-19
0.0084507
-1.89735e-19
0.0084507
1.35525e-19
0.0084507
6.23416e-19
0.0084507
7.31836e-19
0.0084507
3.03577e-18
0.0084507
1.8052e-17
0.0084507
1.10047e-16
0.0084507
3.55645e-16
0.0084507
2.73737e-15
0.0084507
3.35821e-14
0.0084507
2.24915e-13
0.0084507
2.159e-12
-2.09217e-12
0.0084507
0.0084507
0.0084507
0.0084507
0.0084507
0.0084507
0.0084507
0.0084507
0.0084507
0.0084507
0.0084507
0.0084507
0.0084507
0.0084507
0.0084507
0.0084507
0.0084507
0.0084507
0.0084507
0.0084507
0.0084507
0.0084507
0.0084507
0.0084507
0.0084507
0.0084507
0.00308681
0.00445835
-2.88604e-05
0.00312198
-0.0016046
0.00158444
-0.00193035
0.000321839
-0.00196375
3.73425e-05
-0.00195327
4.40912e-05
-0.00244733
0.0005791
-0.00301305
0.000483673
-0.00339573
0.000316142
-0.00356954
0.000168274
-0.00360514
3.4315e-05
-0.003587
-1.54702e-05
-0.00356969
-3.80681e-06
-0.00352049
1.25457e-05
-0.00350687
-5.6468e-06
-0.00359381
3.17497e-05
-0.0036778
5.30685e-05
-0.00372086
3.92572e-05
-0.00374853
2.00196e-05
-0.00374378
3.66489e-06
-0.003739
6.02235e-07
-0.00373231
-2.31294e-07
-0.00373548
5.53559e-06
-0.00373161
-1.25068e-07
-0.00373111
-1.13954e-08
-0.00372124
-1.24574e-05
-0.00372834
-1.13459e-06
-0.00373556
-1.30106e-06
-0.00374175
4.86037e-06
-0.0037481
1.55237e-06
-0.00377763
4.30388e-06
-0.00378679
-4.97048e-06
-0.00380637
-3.32799e-06
-0.00382253
-1.16906e-05
-0.00381598
-2.45249e-05
-0.0037619
-6.0264e-05
-0.00366129
-9.49808e-05
-0.00357553
-8.54521e-05
-0.00337641
-0.00017295
-0.00317891
-0.000183714
-0.00299325
-0.000170801
-0.00274044
-0.00023394
-0.00248334
-0.000250548
-0.00214628
-0.000322105
-0.00180999
-0.000340329
-0.00149365
-0.000311936
-0.00111245
-0.000367891
-0.000672737
-0.000430846
-0.000242286
-0.00042511
0.00019483
-0.000434839
0.00061597
-0.000418296
0.00100076
-0.000383343
0.00136663
-0.000365068
0.00172119
-0.00035064
0.00205415
-0.000329857
0.00236716
-0.000308484
0.00265925
-0.000285662
0.00292783
-0.000261486
0.00317148
-0.000238198
0.00339256
-0.000216449
0.00359523
-0.000198449
0.00378128
-0.000182686
0.00395213
-0.000168874
0.00410895
-0.000155662
0.00425415
-0.000144156
0.00438911
-0.000133274
0.00451437
-0.000122702
0.00462734
-0.000111458
0.00472929
-0.000100957
0.00482156
-9.13555e-05
0.00490447
-8.26448e-05
0.00497886
-7.42444e-05
0.00504636
-6.72728e-05
0.00510775
-6.1111e-05
0.00516405
-5.59723e-05
0.00521509
-5.09923e-05
0.0052618