/*--------------------------------*- C++ -*----------------------------------*\
| =========                 |                                                 |
| \\      /  F ield         | OpenFOAM: The Open Source CFD Toolbox           |
|  \\    /   O peration     | Version:  v2106                                 |
|   \\  /    A nd           | Website:  www.openfoam.com                      |
|    \\/     M anipulation  |                                                 |
\*---------------------------------------------------------------------------*/
FoamFile
{
    version     2.0;
    format      ascii;
    arch        "LSB;label=32;scalar=64";
    class       volScalarField;
    location    "12";
    object      T;
}
// * * * * * * * * * * * * * * * * * * * * * * * * * * * * * * * * * * * * * //

dimensions      [0 0 0 1 0 0 0];

internalField   nonuniform List<scalar> 
5250
(
1
1
1
1
1
1
1
1
1.00002
1.00017
1.00157
1.01461
1.1142
1.51531
2.79395
2.64145
2.52679
2.52558
2.56186
2.55405
2.54437
2.52268
2.4794
2.41294
2.3664
1
1
1
1
1
1
1
1
1.00002
1.00017
1.00152
1.0142
1.1115
1.50688
2.78028
2.64973
2.51978
2.51764
2.55548
2.54392
2.53414
2.51504
2.47195
2.407
2.36255
1
1
1
1
1
1
1
1
1.00002
1.00016
1.00145
1.01364
1.10737
1.48722
2.74888
2.65449
2.51198
2.50007
2.536
2.52739
2.51735
2.4962
2.45504
2.39465
2.35267
1
1
1
1
1
1
1
1
1.00002
1.00015
1.00131
1.01223
1.09707
1.45959
2.70688
2.66765
2.50108
2.47526
2.51036
2.5025
2.493
2.47308
2.43643
2.38219
2.34238
1
1
1
1
1
1
1
1
1.00001
1.00013
1.00117
1.01034
1.08231
1.42058
2.5908
2.6792
2.46174
2.43157
2.46967
2.46109
2.45568
2.44332
2.41326
2.36621
2.32786
1
1
1
1
1
1
1
1
1.00001
1.00011
1.00097
1.00855
1.06898
1.36853
2.33374
2.69677
2.37742
2.35633
2.40429
2.40215
2.40756
2.40477
2.38654
2.34875
2.31047
1
1
1
1
1
1
1
1
1.00001
1.00008
1.00073
1.00626
1.05204
1.30244
1.99956
2.76331
2.2703
2.24901
2.29984
2.31613
2.33509
2.34934
2.34807
2.32386
2.28692
1
1
1
1
1
1
1
1
1.00001
1.00005
1.0005
1.00436
1.0393
1.24779
1.87936
2.94353
2.31437
2.25017
2.28449
2.27479
2.28093
2.29993
2.30422
2.29342
2.24847
1
1
1
1
1
1
1
1
1
1.00004
1.00035
1.0031
1.02957
1.2001
1.75799
3.11293
2.44829
2.30293
2.30383
2.27971
2.26288
2.24598
2.24507
2.25052
2.19009
1
1
1
1
1
1
1
1
1
1.00003
1.00027
1.0024
1.02208
1.15862
1.64887
3.07669
2.50397
2.39758
2.36188
2.31015
2.26986
2.23366
2.20853
2.19863
2.05586
1
1
1
1
1
1
1
1
1
1.00002
1.0002
1.00172
1.01602
1.12233
1.53883
2.92558
2.53656
2.46954
2.41618
2.35956
2.29535
2.22985
2.1504
2.05743
1.80263
1
1
1
1
1
1
1
1
1
1.00002
1.00015
1.00139
1.01193
1.08711
1.43076
2.70657
2.5967
2.42516
2.38845
2.37805
2.33624
2.25054
2.15593
2.05662
1.70474
1
1
1
1
1
1
1
1
1
1.00001
1.00008
1.00076
1.00635
1.0542
1.32172
2.25223
2.67059
2.33608
2.33598
2.35231
2.33715
2.28493
2.17439
2.06346
1.72944
1
1
1
1
1
1
1
1
1
1
1.00004
1.00036
1.00325
1.03391
1.22358
1.83095
2.86263
2.29204
2.27448
2.30526
2.31647
2.28242
2.19608
2.07997
1.79567
1
1
1
1
1
1
1
1
1
1
1.00003
1.00028
1.00243
1.02223
1.15993
1.64771
2.92587
2.29678
2.25212
2.26182
2.2786
2.25895
2.19374
2.09913
1.89625
1
1
1
1
1
1
1
1
1
1
1.00002
1.00017
1.00145
1.01343
1.1049
1.49104
2.83059
2.40002
2.22078
2.20067
2.2217
2.21956
2.1828
2.11073
1.97237
1
1
1
1
1
1
1
1
1
1
1.00001
1.0001
1.00088
1.00765
1.06208
1.34644
2.58567
2.56148
2.23403
2.14836
2.16119
2.17725
2.15735
2.10551
2.00533
1
1
1
1
1
1
1
1
1
1
1.00001
1.00004
1.00043
1.00368
1.0333
1.22019
1.83665
2.81208
2.24924
2.1662
2.1384
2.13547
2.11994
2.08428
2.01017
1
1
1
1
1
1
1
1
1
1
1
1.00003
1.00025
1.00213
1.01817
1.12771
1.56156
2.79068
2.31995
2.18972
2.1068
2.09717
2.08137
2.055
2.00125
1
1
1
1
1
1
1
1
1
1
1
1.00002
1.00007
1.00087
1.00729
1.06335
1.39764
2.57003
2.46813
2.1709
2.06331
2.056
2.04413
2.02202
1.98225
1
1
1
1
1
1
1
1
1
1
1
1.00001
1.00005
1.00044
1.00367
1.03006
1.1937
1.85011
2.74441
2.18653
2.12457
2.05329
2.02757
2.0006
1.96306
1
1
1
1
1
1
1
1
1
1
1
1
1.00006
1.00003
1.00139
1.01059
1.09019
1.56313
2.65347
2.33424
2.11555
2.03027
2.00447
1.97655
1.94255
1
1
1
1
1
1
1
1
1
1
1
1
1.00001
1.00008
1.0007
1.0057
1.04517
1.26753
2.29705
2.56975
2.13773
2.05417
1.99944
1.96398
1.9272
1
1
1
1
1
1
1
1
1
1
1
1
1.00001
1.00008
1.00006
1.00165
1.01194
1.10412
1.74026
2.71781
2.25328
2.09052
1.98728
1.9527
1.91695
1
1
1
1
1
1
1
1
1
1
1
1
1
1.00002
1.00012
1.00095
1.00762
1.05844
1.31998
2.52295
2.45006
2.10075
2.00304
1.95649
1.9172
1
1
1
1
1
1
1
1
1
1
1
1
1
1.00001
1.0001
1.00006
1.00206
1.015
1.11717
1.84703
2.72205
2.21019
2.06457
1.95721
1.91953
1
1
1
1
1
1
1
1
1
1
1
1
1
1
1.00002
1.00014
1.00111
1.00869
1.06391
1.33708
2.51183
2.38851
2.05561
1.97472
1.92652
1
1
1
1
1
1
1
1
1
1
1
1
1
1
1.00001
1.00006
1.00044
1.00377
1.01118
1.10257
1.83757
2.67835
2.17817
2.0275
1.93235
1
1
1
1
1
1
1
1
1
1
1
1
1
1
1
1.00001
1.00013
1.00108
1.00818
1.06114
1.33602
2.46068
2.36294
2.03208
1.9625
1
1
1
1
1
1
1
1
1
1
1
1
1
1
1
1.00001
1.00007
1.00001
1.00154
1.01067
1.09382
1.76571
2.63299
2.17739
2.0065
1
1
1
1
1
1
1
1
1
1
1
1
1
1
1
1
1.00001
1.0001
1.00084
1.00667
1.05195
1.31403
2.40451
2.3771
2.03198
1
1
1
1
1
1
1
1
1
1
1
1
1
1
1
1
1
1.00003
1.00017
1.00159
1.01153
1.09715
1.64599
2.52712
2.20474
1
1
1
1
1
1
1
1
1
1
1
1
1
1
1
1
1
1.00001
1.00008
1.00067
1.00522
1.04161
1.26161
2.11197
2.41041
1
1
1
1
1
1
1
1
1
1
1
1
1
1
1
1
1
1
1.00003
1.00016
1.0013
1.00926
1.07797
1.48311
2.36806
1
1
1
1
1
1
1
1
1
1
1
1
1
1
1
1
1
1
1.00001
1.00007
1.00054
1.00388
1.02881
1.18621
1.76343
1
1
1
1
1
1
1
1
1
1
1
1
1
1
1
1
1
1
1
1.00002
1.00001
1.00052
1.00591
1.05091
1.3167
1
1
1
1
1
1
1
1
1
1
1
1
1
1
1
1
1
1
1
1
0.999986
0.99958
1.00065
1.01217
1.08986
1
1
1
1
1
1
1
1
1
1
1
1
1
1
1
1
1
1
1
1
1.00001
1.00005
1.00038
1.00312
1.02075
1
1
1
1
1
1
1
1
1
1
1
1
1
1
1
1
1
1
1
1
1
1.00001
1.00009
1.00077
1.00558
1
1
1
1
1
1
1
1
1
1
1
1
1
1
1
1
1
1
1
1
1
1
1.00003
1.00021
1.00142
1
1
1
1
1
1
1
1
1
1
1
1
1
1
1
1
1
1
1
1
1
1
0.999999
1.00001
0.999748
1
1
1
1
1
1
1
1
1
1
1
1
1
1
1
1
1
1
1
1
1
1
1
1.00001
1.00009
1
1
1
1
1
1
1
1
1
1
1
1
1
1
1
1
1
1
1
1
1
1
1
1
1.00001
1
1
1
1
1
1
1
1
1
1
1
1
1
1
1
1
1
1
1
1
1
1
1
1
1
1
1
1
1
1
1
1
1
1
1
1
1
1
1
1
1
1
1
1
1
1
1
1
1
1
1
1
1
1
1
1
1
1
1
1
1
1
1
1
1
1
1
1
1
1
1
1
1
1
1
1
1
1
1
1
1
1
1
1
1
1
1
1
1
1
1
1
1
1
1
1
1
1
1
1
1
1
1
1
1
1
1
1
1
1
1
1
1
1
1
1
1
1
1
1
1
1
1
1
1
1
1
1
1
1
1
1
1
1
1
1
1
1
1
1
1
1
1
1
1
1
1
1
1
1
1
1
1
1
1
1
1
1
1
1
1
1
1
1
1
1
1
1
1
1
1
1
1
1
1
1.99898
2.2338
2.6978
2.65571
2.62893
2.67904
2.71993
2.73209
2.52825
2.45247
2.44135
2.44725
2.45232
2.46258
2.48331
2.4155
2.35097
2.31918
2.31165
2.30879
2.31787
2.32105
2.32259
2.32129
2.32092
2.31592
2.30846
2.30098
2.29604
2.29518
2.29324
2.28563
2.29229
2.29729
2.31306
2.34642
2.38616
2.43136
2.47389
2.52742
2.56442
2.59992
2.63376
2.66216
2.6875
2.70187
2.71644
2.72659
2.73404
2.73924
2.73785
2.72972
2.719
2.70499
2.69391
2.68126
2.66697
2.65182
2.63758
2.62373
2.61056
2.59745
2.58497
2.5726
2.56036
2.54825
2.53589
2.52398
2.51316
2.50253
2.49222
2.48248
2.47272
2.4634
2.45404
2.44521
2.43641
2.42782
2.41915
2.41049
2.40168
2.39293
2.3841
2.37562
2.36713
2.35929
2.35151
2.34469
2.33785
2.33169
2.32528
2.31909
2.31271
2.30629
2.29978
2.29295
2.28602
2.27468
2.2744
2.2801
2.02139
2.17739
2.33416
2.55406
2.62951
2.7078
2.82258
2.98802
2.78615
2.70922
2.70021
2.75158
2.76762
2.79026
2.80106
2.72487
2.68111
2.65644
2.65724
2.66081
2.66397
2.66978
2.67208
2.67156
2.66995
2.66866
2.6715
2.65733
2.6483
2.64762
2.6471
2.64139
2.64563
2.65624
2.66609
2.6786
2.72176
2.75904
2.78407
2.80418
2.81305
2.82726
2.81552
2.89996
2.87045
2.84053
2.83395
2.81164
2.78021
2.74729
2.70853
2.67145
2.64342
2.61324
2.58618
2.55788
2.53068
2.50367
2.47842
2.45747
2.43929
2.42079
2.40166
2.38385
2.36774
2.35335
2.33944
2.32533
2.31142
2.29819
2.28557
2.27449
2.26385
2.25363
2.2433
2.23345
2.2239
2.21521
2.20678
2.1986
2.19035
2.18206
2.17359
2.16505
2.15633
2.14832
2.14054
2.13408
2.12786
2.12246
2.11697
2.11167
2.10625
2.10079
2.09524
2.08947
2.08331
2.07338
2.07249
2.07829
1.82668
1.97671
2.10571
2.33035
2.46232
2.54453
2.59394
2.72886
2.87629
2.89364
2.92081
2.89726
2.85087
2.87741
2.93155
2.98904
2.88477
2.83851
2.83203
2.82823
2.84945
2.86049
2.86584
2.86435
2.85701
2.85428
2.8504
2.84716
2.8425
2.84423
2.84664
2.83362
2.83932
2.85308
2.86478
2.89325
2.91767
2.92346
3.0259
2.98955
2.94833
2.91978
2.86707
2.80966
2.73748
2.65889
2.60797
2.55413
2.50552
2.46356
2.41848
2.3813
2.35821
2.33527
2.31349
2.29396
2.27389
2.25495
2.23645
2.2194
2.20529
2.19176
2.17792
2.16456
2.1519
2.13975
2.1275
2.11615
2.10562
2.09607
2.08646
2.07775
2.06937
2.06111
2.05276
2.04455
2.03628
2.0286
2.02111
2.01396
2.00682
1.99973
1.99258
1.98548
1.97831
1.97162
1.96503
1.95935
1.9542
1.94921
1.94409
1.93888
1.93351
1.92802
1.92241
1.91667
1.91059
1.90141
1.89939
1.90522
1.70916
1.76928
1.84861
2.00144
2.18693
2.34245
2.36151
2.41068
2.53813
2.68225
2.76435
2.83357
2.8307
2.81056
2.80236
2.87722
2.91037
2.91965
2.93093
2.92549
2.9153
2.87874
2.83298
2.84002
2.84409
2.84643
2.8548
2.85743
2.83823
2.83316
2.8415
2.84184
2.86023
2.88387
2.9486
3.00887
3.01172
2.98313
2.90678
2.80338
2.67612
2.58778
2.49366
2.43588
2.38257
2.33466
2.30263
2.27705
2.24735
2.22717
2.19852
2.18336
2.16752
2.14769
2.13396
2.11988
2.10843
2.09728
2.08519
2.0713
2.05952
2.05128
2.0425
2.03237
2.02092
2.01012
2.00131
1.99373
1.98589
1.97754
1.96861
1.95987
1.95249
1.94588
1.93943
1.93301
1.92653
1.9199
1.91304
1.90614
1.89952
1.89315
1.88681
1.88062
1.87442
1.86847
1.86257
1.85748
1.85285
1.84825
1.84364
1.83897
1.83428
1.82953
1.82464
1.81958
1.81403
1.80628
1.80196
1.80744
1.73077
1.71061
1.73707
1.81453
1.91577
2.04946
2.12577
2.08988
2.18154
2.31726
2.4393
2.563
2.66173
2.67548
2.66923
2.67966
2.72037
2.77043
2.8148
2.85305
2.87367
2.86989
2.85843
2.84902
2.84502
2.83741
2.83688
2.83844
2.83871
2.8307
2.82577
2.84563
2.86964
2.89706
2.88719
2.83498
2.75539
2.64636
2.50548
2.42697
2.33261
2.28403
2.2325
2.18607
2.13441
2.10832
2.09366
2.08907
2.08254
2.07465
2.05913
2.05351
2.03982
2.02891
2.02373
2.01668
2.00771
1.99776
1.98931
1.98289
1.97501
1.96658
1.95698
1.94605
1.93775
1.93173
1.92581
1.91912
1.91147
1.90334
1.89537
1.88798
1.88181
1.87588
1.86993
1.86392
1.85777
1.85149
1.84538
1.83943
1.83353
1.82767
1.82184
1.81618
1.81051
1.80508
1.79956
1.79501
1.79095
1.78677
1.7825
1.77811
1.77365
1.76908
1.76439
1.75954
1.75426
1.74725
1.74239
1.74821
1.79793
1.71952
1.71332
1.74666
1.78975
1.84757
1.91225
1.87756
1.94962
2.06613
2.16558
2.25651
2.35983
2.4195
2.43191
2.45431
2.50112
2.56019
2.6101
2.66419
2.71335
2.74436
2.76671
2.77995
2.79596
2.80078
2.79996
2.80037
2.80766
2.81785
2.81818
2.8256
2.81736
2.78642
2.70553
2.57286
2.41123
2.28486
2.17797
2.12674
2.07189
2.06057
2.04025
2.00628
1.9839
1.97403
1.97522
1.9711
1.96971
1.9743
1.97559
1.97245
1.96351
1.95524
1.95105
1.94621
1.94094
1.93658
1.93146
1.9251
1.91531
1.9072
1.90272
1.89714
1.89066
1.88375
1.87587
1.8682
1.86179
1.85549
1.84929
1.84304
1.83709
1.83107
1.82492
1.81912
1.81353
1.80795
1.80236
1.79665
1.79077
1.78472
1.77892
1.77368
1.76885
1.76411
1.75934
1.7555
1.75178
1.74784
1.74367
1.73923
1.73458
1.72978
1.72499
1.72018
1.71511
1.70873
1.70369
1.7097
1.8827
1.76279
1.72283
1.71658
1.72943
1.74348
1.7656
1.73741
1.73845
1.79233
1.87805
1.95206
2.03058
2.09399
2.15618
2.18007
2.22597
2.28516
2.35031
2.40318
2.46525
2.51342
2.56004
2.59717
2.63968
2.66427
2.69423
2.70691
2.72595
2.75608
2.75818
2.74871
2.70815
2.60746
2.43556
2.22314
2.08413
1.95813
1.9103
1.8623
1.85334
1.85934
1.86466
1.87584
1.89913
1.9312
1.92273
1.90565
1.90243
1.9019
1.90396
1.91691
1.91699
1.91414
1.90638
1.89753
1.89822
1.8959
1.8918
1.88665
1.88256
1.87736
1.87168
1.8652
1.85796
1.85211
1.84635
1.83993
1.83309
1.82638
1.8206
1.81515
1.80974
1.80457
1.79932
1.79384
1.78817
1.78237
1.77653
1.7707
1.76516
1.75969
1.75455
1.74969
1.74489
1.74008
1.73527
1.7306
1.72636
1.72207
1.71774
1.71338
1.70903
1.70463
1.70017
1.69556
1.69056
1.68447
1.67839
1.68419
1.92255
1.82585
1.75687
1.72392
1.72667
1.71981
1.70997
1.68661
1.65412
1.66341
1.70855
1.76621
1.82016
1.87454
1.92129
1.91937
1.93667
1.9791
2.04063
2.09729
2.17271
2.22271
2.28233
2.32668
2.38128
2.42574
2.48171
2.52326
2.58344
2.6135
2.65009
2.58912
2.47784
2.31184
2.08391
1.93762
1.85682
1.77414
1.73968
1.70072
1.69888
1.69606
1.69995
1.71363
1.74234
1.78023
1.82618
1.896
1.89063
1.86789
1.86625
1.86696
1.8694
1.8808
1.87389
1.87398
1.87324
1.87039
1.86506
1.86589
1.86423
1.85955
1.85214
1.84479
1.83952
1.83479
1.82924
1.82266
1.81534
1.80998
1.80507
1.80008
1.79495
1.78955
1.78387
1.77843
1.77308
1.76768
1.76223
1.7567
1.75134
1.74606
1.74106
1.73612
1.73115
1.72607
1.72083
1.7157
1.71135
1.70709
1.70278
1.69839
1.69393
1.68935
1.68462
1.67968
1.67432
1.66786
1.66155
1.66747
1.93271
1.87129
1.8082
1.76085
1.73544
1.72272
1.70683
1.67901
1.64454
1.6132
1.6196
1.64506
1.6816
1.71022
1.74295
1.74971
1.75074
1.7705
1.80977
1.85923
1.90268
1.95383
1.9984
2.04219
2.08916
2.13849
2.19518
2.25311
2.35785
2.45402
2.44604
2.35184
2.21282
2.02589
1.83586
1.76366
1.72283
1.6775
1.64931
1.61966
1.60293
1.59045
1.58904
1.59929
1.6188
1.64747
1.68879
1.7403
1.80545
1.90705
1.88622
1.84112
1.84454
1.84546
1.84748
1.86019
1.86011
1.85757
1.85556
1.85046
1.84575
1.843
1.83984
1.83643
1.83037
1.82437
1.81763
1.8115
1.80694
1.80221
1.79715
1.79177
1.78616
1.78105
1.77603
1.77089
1.76551
1.75987
1.75435
1.74919
1.7442
1.73925
1.73447
1.72966
1.72471
1.7196
1.71431
1.7091
1.70459
1.70014
1.69563
1.69104
1.68638
1.68162
1.67675
1.67172
1.66634
1.65999
1.65344
1.6593
1.927
1.87957
1.8289
1.80036
1.75883
1.74042
1.71603
1.68384
1.64667
1.61346
1.58231
1.58952
1.60738
1.61956
1.63213
1.64738
1.63846
1.63035
1.64505
1.6756
1.71034
1.74165
1.77366
1.80742
1.84182
1.87893
1.92972
1.9892
2.12333
2.31095
2.22445
2.12352
1.996
1.82997
1.73402
1.6798
1.64496
1.61222
1.58533
1.56273
1.55434
1.54315
1.5365
1.53992
1.54456
1.55808
1.58033
1.61454
1.66793
1.73798
1.81947
1.91319
1.88206
1.84188
1.82483
1.82798
1.83513
1.84205
1.84106
1.83938
1.83667
1.83414
1.82993
1.82631
1.81979
1.81059
1.80685
1.80362
1.79982
1.79521
1.78993
1.78447
1.77938
1.77438
1.76913
1.7635
1.75755
1.7518
1.7469
1.74212
1.73737
1.7326
1.72779
1.72295
1.71819
1.71341
1.70857
1.70399
1.69975
1.69547
1.69106
1.68649
1.68177
1.67689
1.67183
1.66656
1.66092
1.65428
1.64729
1.65312
1.91522
1.87637
1.83859
1.81294
1.78459
1.76357
1.73447
1.70083
1.66293
1.6235
1.5877
1.5741
1.57868
1.58778
1.59521
1.59556
1.58854
1.57322
1.57404
1.5859
1.60646
1.62832
1.6466
1.66659
1.69085
1.72376
1.77582
1.87024
2.08448
2.17455
2.08121
1.99586
1.87486
1.76581
1.71645
1.66544
1.62111
1.58407
1.55689
1.53575
1.5252
1.51722
1.51503
1.51257
1.50916
1.51137
1.51809
1.53416
1.56249
1.60315
1.66468
1.75164
1.89333
1.88529
1.82665
1.82568
1.81584
1.81583
1.81866
1.82474
1.823
1.82051
1.81556
1.81092
1.80691
1.80094
1.79429
1.79039
1.7865
1.78283
1.77835
1.77311
1.76712
1.76133
1.75617
1.75129
1.74632
1.74122
1.73613
1.73128
1.72658
1.72187
1.7173
1.71278
1.70825
1.70372
1.69912
1.69467
1.6903
1.68584
1.68126
1.67657
1.6718
1.66698
1.66208
1.65703
1.65162
1.64517
1.63827
1.64425
1.89988
1.86393
1.83413
1.80994
1.79297
1.77312
1.75215
1.7242
1.68713
1.64379
1.60871
1.57443
1.56977
1.57609
1.57758
1.5731
1.56398
1.55621
1.54171
1.53644
1.5404
1.55112
1.56611
1.58062
1.60145
1.63859
1.71015
1.86125
2.15663
2.05354
1.98552
1.9045
1.79939
1.75561
1.71081
1.67033
1.633
1.5957
1.57155
1.54932
1.52629
1.51107
1.49682
1.49351
1.4931
1.49478
1.49549
1.49542
1.50319
1.5187
1.55116
1.60266
1.67486
1.77056
1.89467
1.86104
1.82315
1.78186
1.78893
1.7894
1.79831
1.7952
1.79129
1.7859
1.78217
1.77895
1.77604
1.77231
1.76863
1.76382
1.75719
1.75142
1.74671
1.74215
1.73744
1.73226
1.72641
1.72199
1.7178
1.71354
1.70925
1.70484
1.70024
1.69555
1.69115
1.68684
1.68248
1.67811
1.67382
1.66945
1.66499
1.6605
1.65612
1.65177
1.64737
1.64285
1.63794
1.63192
1.62546
1.63183
1.88794
1.85025
1.82502
1.8045
1.78987
1.77238
1.75796
1.73618
1.70583
1.67131
1.63609
1.5974
1.5738
1.57186
1.56853
1.56419
1.55697
1.54603
1.53226
1.5268
1.51449
1.511
1.52216
1.53371
1.55813
1.61436
1.73515
1.96591
2.07243
1.97864
1.92062
1.85678
1.80222
1.75816
1.71957
1.68603
1.65222
1.62773
1.60315
1.57841
1.55824
1.54184
1.52377
1.50611
1.48968
1.48325
1.48141
1.48079
1.48207
1.48076
1.48885
1.5039
1.54017
1.60152
1.68834
1.84296
1.85824
1.80587
1.79504
1.76832
1.77204
1.77357
1.77658
1.77624
1.77426
1.76777
1.76448
1.76091
1.75658
1.75138
1.74566
1.74046
1.73615
1.73133
1.72593
1.72057
1.71495
1.71105
1.7072
1.70309
1.69862
1.69373
1.68859
1.68362
1.67895
1.67446
1.67008
1.66574
1.6614
1.65698
1.65246
1.64784
1.6432
1.63854
1.63384
1.629
1.62381
1.61754
1.61077
1.6174
1.88023
1.84116
1.81436
1.79482
1.7788
1.7654
1.7543
1.73743
1.71689
1.69103
1.65685
1.627
1.59534
1.57705
1.57039
1.56633
1.55657
1.54794
1.53989
1.52968
1.50519
1.49808
1.51258
1.52712
1.56872
1.66256
1.84232
2.0782
1.97814
1.94086
1.89918
1.85335
1.81502
1.77821
1.7454
1.71452
1.68457
1.65868
1.63226
1.60933
1.58875
1.56708
1.5431
1.52749
1.51484
1.49844
1.48345
1.4687
1.4663
1.46558
1.46128
1.45757
1.4688
1.4911
1.54168
1.62016
1.71927
1.87469
1.83954
1.7992
1.75258
1.751
1.75367
1.75885
1.75876
1.75837
1.75615
1.74935
1.74067
1.73792
1.73509
1.73158
1.72671
1.72082
1.71393
1.70811
1.70337
1.69879
1.6949
1.69116
1.68733
1.68331
1.6791
1.67466
1.67005
1.66535
1.6605
1.65591
1.65161
1.64723
1.64277
1.63816
1.63339
1.62847
1.62337
1.61811
1.61248
1.60581
1.59837
1.60497
1.8769
1.83612
1.80373
1.78757
1.76968
1.75326
1.74496
1.73422
1.71851
1.69724
1.67034
1.64181
1.62182
1.59231
1.57624
1.57028
1.56241
1.55482
1.54652
1.53464
1.50604
1.50727
1.5196
1.54513
1.6216
1.77407
2.07565
2.00695
1.92698
1.90437
1.8797
1.85372
1.82625
1.79721
1.76651
1.73548
1.7094
1.68396
1.65807
1.63581
1.61334
1.5889
1.56934
1.55358
1.53384
1.514
1.49811
1.4818
1.46441
1.44892
1.44003
1.44182
1.44335
1.44242
1.45857
1.49779
1.55767
1.65274
1.77727
1.84593
1.80335
1.78155
1.7326
1.73638
1.74252
1.75129
1.75114
1.749
1.73947
1.73204
1.73019
1.72707
1.72274
1.71673
1.70974
1.702
1.69855
1.69545
1.69214
1.68868
1.68509
1.68122
1.67708
1.67273
1.66805
1.66302
1.65774
1.6526
1.64782
1.643
1.63811
1.63312
1.62804
1.62288
1.6176
1.61219
1.60646
1.59967
1.59194
1.59869
1.87897
1.83814
1.79749
1.78228
1.76658
1.74629
1.73647
1.72766
1.71447
1.69614
1.67502
1.64884
1.63037
1.61053
1.58454
1.57767
1.57367
1.56452
1.55272
1.53945
1.52362
1.53085
1.54419
1.59828
1.7285
2.01917
1.99334
1.91053
1.90279
1.88973
1.87462
1.85719
1.8364
1.81273
1.78646
1.75829
1.73229
1.70633
1.68062
1.65742
1.63231
1.61055
1.59184
1.57016
1.54855
1.53124
1.5117
1.49536
1.4784
1.46726
1.45532
1.44009
1.42963
1.42224
1.43048
1.44158
1.46353
1.51318
1.58451
1.67898
1.83952
1.82253
1.77378
1.75055
1.71965
1.72471
1.72907
1.7331
1.73239
1.72924
1.72252
1.71516
1.71123
1.70708
1.70246
1.69672
1.69093
1.68903
1.68707
1.68465
1.68187
1.67851
1.67438
1.66971
1.66479
1.65961
1.65412
1.64868
1.64342
1.63834
1.63326
1.62815
1.62296
1.61774
1.61242
1.60699
1.60119
1.59427
1.58624
1.59328
1.88337
1.84027
1.79689
1.77744
1.76518
1.74386
1.72968
1.72195
1.70913
1.69308
1.67369
1.65111
1.63131
1.61797
1.5946
1.57447
1.57467
1.56955
1.55703
1.54857
1.55338
1.5612
1.60323
1.71055
1.95253
1.98309
1.91034
1.90119
1.89121
1.8821
1.87189
1.85887
1.8425
1.82227
1.79988
1.7756
1.74991
1.72331
1.69881
1.67358
1.64824
1.62956
1.60754
1.58401
1.56543
1.54435
1.52526
1.51075
1.49795
1.48526
1.46998
1.45455
1.4393
1.42485
1.4182
1.42517
1.42382
1.4377
1.46743
1.52814
1.61276
1.70715
1.82837
1.79562
1.7609
1.70259
1.70337
1.71141
1.7214
1.71982
1.7184
1.71405
1.70625
1.69729
1.69273
1.68783
1.68366
1.68101
1.6784
1.67555
1.67252
1.6694
1.66619
1.66244
1.65795
1.65284
1.64719
1.64171
1.63666
1.63172
1.62679
1.6218
1.61664
1.61139
1.606
1.60047
1.59456
1.58756
1.57942
1.58672
1.89107
1.8474
1.80221
1.77769
1.76806
1.74752
1.72666
1.72058
1.7093
1.69352
1.67349
1.65125
1.6312
1.61646
1.59682
1.57443
1.57178
1.56073
1.56446
1.56848
1.57593
1.61268
1.70695
1.8983
1.99889
1.92363
1.90925
1.88818
1.88329
1.87757
1.87063
1.86057
1.84657
1.82853
1.80726
1.78494
1.76086
1.73605
1.71189
1.68648
1.66599
1.64499
1.62182
1.60146
1.57975
1.56105
1.54603
1.53081
1.51685
1.5001
1.482
1.46621
1.45197
1.43694
1.41681
1.41156
1.40756
1.41483
1.4189
1.44212
1.47984
1.53809
1.62878
1.77172
1.78488
1.73326
1.72583
1.69039
1.69258
1.70108
1.70679
1.70684
1.70416
1.6974
1.6832
1.67874
1.6786
1.67695
1.67471
1.67176
1.66762
1.66217
1.65799
1.65396
1.64966
1.64468
1.63889
1.63278
1.62771
1.62317
1.61855
1.61374
1.6087
1.60348
1.59814
1.5927
1.58691
1.57997
1.57185
1.57942
1.90935
1.85767
1.80854
1.77508
1.76811
1.75316
1.72526
1.7186
1.71075
1.69538
1.67443
1.65178
1.63303
1.6154
1.59577
1.57769
1.55847
1.56266
1.57299
1.58548
1.61818
1.70482
1.86084
2.01787
1.93807
1.91798
1.88236
1.88002
1.87717
1.87161
1.86372
1.85349
1.84073
1.82586
1.80788
1.78736
1.76531
1.74159
1.71871
1.69527
1.67577
1.65472
1.63258
1.61251
1.59071
1.57631
1.5602
1.54304
1.52642
1.50862
1.49299
1.47787
1.46169
1.44526
1.4305
1.41522
1.40377
1.40683
1.40348
1.4065
1.41605
1.43918
1.48518
1.55834
1.64051
1.79233
1.77986
1.74142
1.71587
1.68156
1.6844
1.68995
1.69656
1.69437
1.68904
1.67735
1.66991
1.67124
1.6712
1.66964
1.66649
1.6617
1.65558
1.64992
1.64497
1.63975
1.63394
1.62807
1.6224
1.61755
1.61291
1.60807
1.60301
1.59762
1.59186
1.58567
1.57902
1.57133
1.56271
1.57061
1.91466
1.87272
1.82518
1.78181
1.76575
1.75561
1.72914
1.71442
1.71105
1.6982
1.67824
1.65339
1.63796
1.62208
1.60137
1.5749
1.5551
1.56913
1.58617
1.61512
1.69588
1.85006
2.04534
1.96444
1.93398
1.88644
1.87841
1.87443
1.86764
1.85909
1.84988
1.84039
1.8302
1.81829
1.80423
1.78703
1.76772
1.74647
1.72443
1.7028
1.68129
1.65954
1.64038
1.62193
1.60502
1.58651
1.56765
1.55005
1.53174
1.51897
1.50412
1.48754
1.46861
1.45544
1.44155
1.4317
1.42223
1.41038
1.39515
1.39113
1.39567
1.39855
1.41062
1.43984
1.4936
1.58347
1.6976
1.77893
1.72906
1.71077
1.66964
1.67125
1.67857
1.68243
1.68174
1.67733
1.67129
1.66464
1.66187
1.66117
1.65915
1.65602
1.6513
1.64576
1.64008
1.63437
1.62819
1.6223
1.61736
1.61274
1.60816
1.60337
1.59829
1.59267
1.58664
1.58018
1.57331
1.56543
1.55654
1.56451
1.97345
1.8922
1.8412
1.7909
1.76091
1.75506
1.73527
1.71285
1.70965
1.69976
1.68265
1.65845
1.63985
1.63002
1.6115
1.57713
1.57246
1.58624
1.60754
1.67707
1.8212
2.07134
1.99737
1.95213
1.89412
1.87916
1.87402
1.86626
1.85756
1.8485
1.8391
1.83046
1.82157
1.81175
1.80036
1.78673
1.77081
1.75295
1.73328
1.71304
1.69115
1.67127
1.6521
1.63246
1.61438
1.59526
1.57791
1.56163
1.54578
1.52929
1.51364
1.49703
1.4815
1.46449
1.45444
1.44298
1.43163
1.42026
1.40836
1.39454
1.39197
1.39093
1.3844
1.38815
1.41093
1.45422
1.51652
1.60626
1.75993
1.75204
1.70778
1.69279
1.65834
1.66083
1.67228
1.67279
1.67034
1.66641
1.66143
1.65433
1.64988
1.64612
1.64201
1.63748
1.63257
1.62706
1.62058
1.61313
1.60924
1.60526
1.60107
1.59662
1.59183
1.5863
1.58022
1.57376
1.56693
1.55907
1.5501
1.55817
1.96558
1.90489
1.85928
1.81473
1.76896
1.75388
1.73649
1.71174
1.70542
1.70022
1.68728
1.66584
1.64095
1.63178
1.6182
1.59422
1.59871
1.61144
1.66734
1.79505
2.05192
2.01529
1.96449
1.90202
1.88401
1.87724
1.86838
1.8588
1.84951
1.84056
1.83219
1.82354
1.81528
1.80662
1.79702
1.78595
1.77261
1.75703
1.73937
1.72065
1.70066
1.68134
1.66131
1.64186
1.6228
1.60566
1.58876
1.5719
1.55598
1.5397
1.52335
1.50713
1.49166
1.47653
1.46195
1.44851
1.4406
1.43068
1.42068
1.41021
1.39888
1.38646
1.3766
1.36841
1.37491
1.38722
1.41058
1.46453
1.54859
1.6385
1.76422
1.73508
1.70326
1.66667
1.64351
1.64665
1.65628
1.65607
1.65398
1.65065
1.6455
1.63909
1.63291
1.62793
1.6232
1.61797
1.61204
1.60505
1.59859
1.5951
1.59158
1.58774
1.58342
1.57823
1.57238
1.56609
1.55946
1.55186
1.54322
1.5514
2.04194
1.95129
1.86747
1.8313
1.78729
1.75922
1.74175
1.71267
1.70473
1.70112
1.68994
1.67195
1.64608
1.63198
1.62502
1.62596
1.63334
1.67463
1.7863
2.03489
2.02659
1.97775
1.9138
1.89767
1.89076
1.88123
1.8703
1.85838
1.84875
1.83894
1.82974
1.82071
1.8116
1.80255
1.79301
1.78263
1.77083
1.75741
1.74201
1.72514
1.70718
1.68846
1.66935
1.65035
1.63237
1.61455
1.59773
1.58198
1.56593
1.55105
1.53517
1.51927
1.5014
1.48818
1.47326
1.46282
1.45225
1.43914
1.4305
1.4197
1.40859
1.39809
1.38541
1.36504
1.36183
1.36518
1.36758
1.38528
1.41936
1.4847
1.58359
1.73924
1.73271
1.68411
1.66945
1.62985
1.62886
1.6335
1.64012
1.64018
1.63911
1.63614
1.62956
1.62274
1.61715
1.61091
1.60345
1.59605
1.59129
1.58791
1.58437
1.58047
1.57599
1.57048
1.56419
1.55779
1.55122
1.54365
1.53478
1.54327
2.22793
1.94938
1.90645
1.84211
1.8104
1.77464
1.75453
1.72251
1.7032
1.70235
1.6954
1.67838
1.64773
1.63825
1.64496
1.65909
1.69722
1.7968
2.01061
2.05478
2.00214
1.934
1.91712
1.90993
1.89899
1.88674
1.87382
1.86077
1.84913
1.83745
1.82548
1.81503
1.80545
1.79586
1.78628
1.77637
1.76567
1.75389
1.74073
1.7263
1.71059
1.69399
1.67659
1.65884
1.64104
1.62404
1.6079
1.59195
1.57652
1.56091
1.54547
1.5292
1.51245
1.49536
1.48435
1.47272
1.45951
1.44759
1.43834
1.42802
1.41664
1.40307
1.38639
1.37189
1.35392
1.35198
1.35248
1.35431
1.36308
1.39481
1.44589
1.51521
1.6035
1.73395
1.70729
1.67089
1.64383
1.61255
1.61515
1.62339
1.62548
1.62531
1.62329
1.61793
1.61014
1.60045
1.59317
1.5887
1.58466
1.58049
1.57626
1.57263
1.56822
1.56282
1.55618
1.54941
1.54276
1.53546
1.52628
1.5346
2.4295
2.08748
1.9186
1.85493
1.80815
1.78271
1.75699
1.731
1.70247
1.70125
1.69856
1.68433
1.65867
1.66016
1.67448
1.71516
1.81413
2.00572
2.07762
2.021
1.95325
1.929
1.9233
1.91244
1.89971
1.88626
1.87223
1.85896
1.84621
1.8338
1.82154
1.8098
1.80016
1.79069
1.78126
1.77162
1.76151
1.75081
1.73923
1.72665
1.7129
1.69812
1.68241
1.66613
1.64934
1.63331
1.6174
1.60179
1.5863
1.57066
1.55485
1.53846
1.52228
1.5051
1.49179
1.48062
1.4689
1.46108
1.45028
1.43805
1.42542
1.41075
1.39505
1.38139
1.371
1.36105
1.34799
1.34942
1.35091
1.35325
1.36963
1.40199
1.45941
1.54135
1.67401
1.68902
1.64699
1.63699
1.61166
1.6002
1.60282
1.61154
1.61213
1.60959
1.60345
1.59423
1.5813
1.57743
1.57497
1.57135
1.56717
1.56241
1.55802
1.55311
1.54683
1.54045
1.53403
1.52656
1.51672
1.52485
2.29679
2.28561
1.98309
1.89819
1.80628
1.78611
1.7661
1.7407
1.70848
1.69558
1.69587
1.68662
1.68587
1.69374
1.73022
1.83097
2.02231
2.10469
2.04248
1.97456
1.93993
1.93455
1.9242
1.91171
1.89837
1.88443
1.87129
1.8581
1.84488
1.83165
1.81866
1.8059
1.7954
1.78658
1.77763
1.76847
1.75889
1.74886
1.73822
1.72674
1.71429
1.70073
1.68633
1.67131
1.656
1.64052
1.62507
1.60955
1.59394
1.57785
1.56146
1.54443
1.5275
1.5104
1.4973
1.48455
1.47427
1.46481
1.45363
1.44044
1.42785
1.41577
1.40307
1.38998
1.37662
1.36649
1.35595
1.34143
1.34035
1.34126
1.34505
1.35411
1.37648
1.41668
1.48138
1.55998
1.6883
1.67429
1.64119
1.62669
1.59933
1.59307
1.59562
1.59519
1.59233
1.58583
1.57789
1.56849
1.56328
1.56142
1.55827
1.55411
1.54909
1.54353
1.53696
1.52992
1.52343
1.51622
1.50585
1.51396
1.5243
2.30328
2.13851
1.87308
1.83649
1.7907
1.77058
1.75044
1.72526
1.69049
1.69203
1.70198
1.71418
1.74941
1.84866
2.04272
2.14193
2.06919
2.00853
1.95857
1.95325
1.94389
1.93104
1.9165
1.89998
1.88752
1.87502
1.86206
1.84865
1.83496
1.82151
1.80881
1.79673
1.7865
1.777
1.76755
1.75781
1.74744
1.73658
1.72523
1.71318
1.70041
1.68694
1.67303
1.6586
1.644
1.62884
1.61339
1.59781
1.58185
1.56562
1.54884
1.53156
1.51387
1.50181
1.4892
1.47714
1.46364
1.45343
1.44098
1.43052
1.41903
1.40673
1.39418
1.38069
1.37112
1.36051
1.35198
1.34531
1.33607
1.33793
1.3424
1.34471
1.35734
1.38173
1.42552
1.50995
1.62171
1.67251
1.64583
1.62615
1.60525
1.57644
1.57655
1.58125
1.5793
1.57453
1.56783
1.56004
1.55075
1.54751
1.54353
1.53856
1.53269
1.52599
1.51903
1.51194
1.50421
1.49284
1.50117
1.13977
1.73564
2.38945
2.06571
1.86488
1.81343
1.77573
1.75464
1.7263
1.69472
1.70185
1.7246
1.77023
1.87082
2.06293
2.18098
2.10027
2.03737
1.97457
1.97269
1.96644
1.95582
1.94254
1.92534
1.90968
1.89554
1.8811
1.86651
1.85216
1.83822
1.82443
1.81084
1.7972
1.78484
1.7731
1.76251
1.75208
1.74133
1.73
1.7183
1.70627
1.69369
1.68105
1.66807
1.65508
1.64168
1.62803
1.61368
1.59902
1.58382
1.56831
1.55196
1.53487
1.51803
1.50481
1.49374
1.4817
1.46922
1.45778
1.44667
1.43534
1.42362
1.41273
1.4014
1.3921
1.38375
1.3746
1.36783
1.36015
1.35193
1.34384
1.33445
1.33551
1.33958
1.34477
1.36162
1.40042
1.46494
1.5442
1.69392
1.67881
1.63279
1.61538
1.5844
1.57031
1.57085
1.57064
1.56692
1.55956
1.55149
1.54189
1.53377
1.52755
1.5218
1.51584
1.5093
1.50226
1.49449
1.48387
1.49145
1.04993
1.29064
2.2018
2.29134
1.97862
1.87469
1.78403
1.74999
1.71296
1.71136
1.72507
1.7684
1.88424
2.08604
2.21725
2.13538
2.07112
2.00003
1.99779
1.99269
1.98245
1.96849
1.9525
1.93401
1.91747
1.90098
1.88446
1.86826
1.85312
1.83845
1.82378
1.80917
1.79453
1.78017
1.76623
1.75334
1.74229
1.7312
1.71983
1.708
1.69601
1.68379
1.67207
1.66034
1.64853
1.63657
1.62437
1.61175
1.59859
1.5847
1.57015
1.55457
1.53737
1.52359
1.5098
1.49819
1.48709
1.4759
1.46425
1.45262
1.44118
1.42963
1.41974
1.40996
1.40173
1.3931
1.38651
1.37858
1.37311
1.36651
1.35891
1.3527
1.34669
1.34091
1.34364
1.3425
1.35163
1.38404
1.44205
1.51882
1.6178
1.68949
1.65901
1.63367
1.60879
1.5748
1.57025
1.56808
1.56356
1.55613
1.54626
1.53449
1.52876
1.5228
1.51585
1.50931
1.50282
1.49519
1.4817
1.48851
1.0086
1.07633
1.46677
2.23332
2.11026
1.85261
1.80005
1.74327
1.72404
1.73648
1.77864
1.89079
2.09851
2.22738
2.15037
2.08208
2.00926
2.00615
2.00311
1.99437
1.98029
1.96472
1.94766
1.93003
1.91217
1.89495
1.87809
1.86186
1.8462
1.83078
1.81529
1.79976
1.78429
1.76945
1.75518
1.7414
1.73073
1.72048
1.70971
1.6986
1.68711
1.67562
1.66456
1.65432
1.64403
1.63369
1.62317
1.61222
1.6007
1.58838
1.57511
1.56073
1.54544
1.53204
1.52041
1.50956
1.49864
1.48766
1.47652
1.46626
1.45598
1.44709
1.43803
1.43013
1.42136
1.41422
1.40662
1.40123
1.39634
1.39083
1.38587
1.38106
1.37602
1.37057
1.36175
1.3643
1.36642
1.37657
1.40045
1.43903
1.50258
1.58907
1.72902
1.715
1.66262
1.64061
1.61001
1.58125
1.57492
1.57189
1.56431
1.55237
1.54391
1.53479
1.52328
1.51571
1.50828
1.49932