/*--------------------------------*- C++ -*----------------------------------*\
| =========                 |                                                 |
| \\      /  F ield         | OpenFOAM: The Open Source CFD Toolbox           |
|  \\    /   O peration     | Version:  v2106                                 |
|   \\  /    A nd           | Website:  www.openfoam.com                      |
|    \\/     M anipulation  |                                                 |
\*---------------------------------------------------------------------------*/
FoamFile
{
    version     2.0;
    format      ascii;
    arch        "LSB;label=32;scalar=64";
    class       volVectorField;
    location    "12";
    object      U;
}
// * * * * * * * * * * * * * * * * * * * * * * * * * * * * * * * * * * * * * //

dimensions      [0 1 -1 0 0 0 0];

internalField   nonuniform List<vector> 
5250
(
(3 7.03452e-15 0)
(3 -1.01757e-13 0)
(3 -5.14973e-13 0)
(3 -7.36231e-12 0)
(3 -2.93008e-11 0)
(3 -3.55628e-10 0)
(3 1.57697e-09 0)
(3 1.0757e-09 0)
(3.00001 9.03978e-08 0)
(2.99994 4.36136e-07 0)
(3.00058 6.1418e-06 0)
(2.99882 4.61187e-05 0)
(3.03158 0.000492673 0)
(3.01235 0.00315763 0)
(2.43205 0.00775809 0)
(0.645644 0.0315406 0)
(0.537905 0.0180995 0)
(0.539438 0.0209778 0)
(0.484319 0.0212941 0)
(0.40917 0.0252131 0)
(0.351932 0.0336929 0)
(0.278235 0.0304601 0)
(0.204573 0.0301796 0)
(0.117795 0.0350278 0)
(0.0415383 0.03499 0)
(3 3.70293e-15 0)
(3 3.06302e-14 0)
(3 -3.31236e-12 0)
(3 1.18542e-10 0)
(3 -3.60262e-10 0)
(3 -7.95049e-09 0)
(3 -1.13476e-08 0)
(3 2.92212e-08 0)
(3.00001 7.6792e-08 0)
(2.99995 1.98559e-06 0)
(3.00056 1.03643e-05 0)
(2.99885 0.000146619 0)
(3.03063 0.000978336 0)
(3.01461 0.00920054 0)
(2.44166 0.0254957 0)
(0.65854 0.100031 0)
(0.525612 0.0488176 0)
(0.534991 0.0622636 0)
(0.477676 0.0686629 0)
(0.403251 0.0739504 0)
(0.352287 0.0738949 0)
(0.273582 0.0874631 0)
(0.194131 0.101098 0)
(0.113085 0.0988216 0)
(0.0388863 0.0966426 0)
(3 -5.37806e-14 0)
(3 7.13905e-13 0)
(3 3.01909e-12 0)
(3 5.40878e-11 0)
(3 9.77971e-10 0)
(3 -4.03237e-09 0)
(3 1.46114e-08 0)
(3 -3.32808e-08 0)
(3.00002 5.95077e-07 0)
(2.99993 1.15846e-06 0)
(3.00063 3.29282e-05 0)
(2.99828 0.000203009 0)
(3.03326 0.00242957 0)
(3.02092 0.0167159 0)
(2.4722 0.0452038 0)
(0.706877 0.171637 0)
(0.506954 0.0836417 0)
(0.532556 0.103386 0)
(0.472317 0.112086 0)
(0.399141 0.117255 0)
(0.335409 0.142545 0)
(0.254886 0.156091 0)
(0.188893 0.160478 0)
(0.110581 0.161759 0)
(0.0412952 0.159591 0)
(3 1.51583e-14 0)
(3 3.97597e-13 0)
(3 6.59261e-12 0)
(3 1.7254e-11 0)
(3 5.86671e-10 0)
(3 4.3955e-09 0)
(3 3.17148e-08 0)
(3 -9.70353e-08 0)
(3.00001 9.57641e-07 0)
(2.99997 -1.36318e-06 0)
(3.0004 5.66928e-05 0)
(2.99937 0.000193406 0)
(3.02498 -0.0168684 0)
(3.02629 0.0261426 0)
(2.50865 0.0669031 0)
(0.768313 0.254821 0)
(0.47156 0.121942 0)
(0.524443 0.149817 0)
(0.459384 0.15709 0)
(0.376301 0.177097 0)
(0.323143 0.194347 0)
(0.255673 0.206887 0)
(0.189048 0.220691 0)
(0.116771 0.221982 0)
(0.0388742 0.224035 0)
(3 1.7909e-13 0)
(3 -1.53092e-13 0)
(3 1.42075e-12 0)
(3 -4.67201e-12 0)
(3 1.3419e-10 0)
(3 -5.86923e-10 0)
(3 1.15226e-08 0)
(3 -4.40681e-08 0)
(3 7.44172e-07 0)
(3.00001 -7.65269e-07 0)
(3.00011 4.00384e-05 0)
(3.00086 0.000276274 0)
(3.00979 0.000845596 0)
(3.04279 0.0318535 0)
(2.56737 0.0884493 0)
(0.861644 0.352187 0)
(0.422515 0.157195 0)
(0.510518 0.196032 0)
(0.437196 0.208979 0)
(0.365827 0.220662 0)
(0.322178 0.24125 0)
(0.255728 0.263006 0)
(0.196105 0.276334 0)
(0.115494 0.286916 0)
(0.0457743 0.290317 0)
(3 -1.10615e-13 0)
(3 2.10144e-13 0)
(3 2.19064e-12 0)
(3 -1.42315e-11 0)
(3 1.63033e-10 0)
(3 -5.17852e-10 0)
(3 1.27289e-08 0)
(3 -1.72629e-08 0)
(3 8.35693e-07 0)
(3.00001 1.4614e-06 0)
(3.00007 4.97437e-05 0)
(3.00083 0.000348539 0)
(3.00793 0.00249263 0)
(3.05721 0.0357597 0)
(2.65057 0.110589 0)
(1.0191 0.468432 0)
(0.369323 0.216148 0)
(0.508521 0.240307 0)
(0.4312 0.250431 0)
(0.365608 0.265825 0)
(0.320505 0.29131 0)
(0.265493 0.314476 0)
(0.197543 0.339303 0)
(0.131963 0.351759 0)
(0.0422911 0.362587 0)
(3 -1.39706e-14 0)
(3 9.66574e-14 0)
(3 1.55801e-12 0)
(3 -1.81367e-11 0)
(3 1.87904e-10 0)
(3 1.13422e-10 0)
(3 9.45787e-09 0)
(3 6.64707e-08 0)
(3 7.2663e-07 0)
(3.00001 -2.87604e-05 0)
(3.00002 7.21195e-05 0)
(3.00093 -0.000228529 0)
(3.00372 0.00404036 0)
(3.06863 0.0339618 0)
(2.76125 0.0995493 0)
(1.3081 0.579714 0)
(0.360023 0.265216 0)
(0.526938 0.279205 0)
(0.44867 0.293113 0)
(0.375915 0.309712 0)
(0.341884 0.328243 0)
(0.281832 0.365038 0)
(0.225681 0.392877 0)
(0.144033 0.419978 0)
(0.064023 0.443895 0)
(3 -3.24709e-14 0)
(3 1.76488e-13 0)
(3 -1.15125e-12 0)
(3 4.26857e-12 0)
(3 -1.11931e-11 0)
(3 -9.99123e-10 0)
(3 7.93865e-09 0)
(3 2.58647e-08 0)
(3 4.58396e-07 0)
(3 6.82042e-07 0)
(3.00004 8.6813e-05 0)
(3.00051 -0.00110193 0)
(3.00118 0.00326658 0)
(3.06713 0.0258808 0)
(2.84496 0.0500578 0)
(1.74681 0.663092 0)
(0.405761 0.362975 0)
(0.572103 0.33077 0)
(0.496031 0.338773 0)
(0.404445 0.354677 0)
(0.371564 0.37441 0)
(0.303213 0.421364 0)
(0.252413 0.460379 0)
(0.164053 0.503146 0)
(0.0696239 0.546758 0)
(3 2.51745e-15 0)
(3 1.90486e-13 0)
(3 7.88687e-13 0)
(3 1.91427e-11 0)
(3 -7.802e-11 0)
(3 1.28983e-10 0)
(3 9.1638e-09 0)
(3 -8.77078e-08 0)
(3 5.70746e-07 0)
(3 -2.69685e-07 0)
(3.00002 3.06009e-05 0)
(3.00054 0.000231166 0)
(2.99931 0.00226653 0)
(3.0605 0.0200247 0)
(2.90101 0.0352919 0)
(2.14419 0.615461 0)
(0.557712 0.463507 0)
(0.642134 0.407312 0)
(0.577592 0.399591 0)
(0.470486 0.408153 0)
(0.429614 0.418158 0)
(0.351529 0.474313 0)
(0.317062 0.519409 0)
(0.220863 0.577804 0)
(0.144113 0.668175 0)
(3 3.85865e-14 0)
(3 1.03351e-14 0)
(3 1.62551e-12 0)
(3 7.82796e-12 0)
(3 6.86901e-11 0)
(3 8.64898e-10 0)
(3 4.97697e-09 0)
(3 1.27183e-08 0)
(3 3.81776e-07 0)
(3.00002 1.46577e-06 0)
(2.99993 2.33024e-05 0)
(3.00084 0.000151329 0)
(2.99855 0.00163475 0)
(3.04968 0.015854 0)
(2.95051 0.0561029 0)
(2.34391 0.478847 0)
(0.676282 0.566259 0)
(0.729534 0.474753 0)
(0.677111 0.461743 0)
(0.565728 0.481528 0)
(0.50247 0.484932 0)
(0.422922 0.534202 0)
(0.36795 0.600435 0)
(0.29508 0.688267 0)
(0.100813 0.900502 0)
(3 3.59375e-14 0)
(3 -5.10266e-14 0)
(3 1.73649e-12 0)
(3 5.59072e-12 0)
(3 1.07786e-10 0)
(3 6.70263e-10 0)
(3 -2.76968e-09 0)
(3 3.10394e-08 0)
(3 1.31796e-08 0)
(3.00002 2.06036e-06 0)
(2.99993 6.95587e-06 0)
(3.00076 0.000157186 0)
(2.99793 0.000955366 0)
(3.0409 0.0131287 0)
(3.00081 0.0703052 0)
(2.50141 0.371494 0)
(0.828153 0.615018 0)
(0.728827 0.515211 0)
(0.727588 0.531785 0)
(0.67102 0.551988 0)
(0.600749 0.552611 0)
(0.515474 0.603959 0)
(0.460027 0.677734 0)
(0.478799 0.782719 0)
(0.416793 1.07471 0)
(3 1.518e-14 0)
(3 -1.65491e-14 0)
(3 1.10337e-12 0)
(3 2.7343e-12 0)
(3 9.73417e-11 0)
(3 5.78176e-10 0)
(3 -1.44692e-09 0)
(3 5.57066e-08 0)
(3 -1.05403e-07 0)
(3 2.43121e-06 0)
(3.00002 -1.2592e-05 0)
(3.00007 0.000130352 0)
(3.00155 0.00143908 0)
(3.01468 -0.00938371 0)
(3.0382 0.076248 0)
(2.64962 0.30377 0)
(1.03491 0.690226 0)
(0.689151 0.52429 0)
(0.743981 0.543216 0)
(0.740899 0.626186 0)
(0.704015 0.635691 0)
(0.626828 0.677809 0)
(0.593698 0.733457 0)
(0.681931 0.82957 0)
(0.682505 0.980567 0)
(3 -9.0393e-16 0)
(3 6.04234e-14 0)
(3 3.38268e-13 0)
(3 1.95636e-12 0)
(3 2.09103e-11 0)
(3 2.10364e-10 0)
(3 2.60248e-09 0)
(3 -4.90431e-08 0)
(3 1.63334e-07 0)
(3 2.09484e-06 0)
(3.00001 -6.15737e-06 0)
(3.00004 0.000186722 0)
(3.00103 -0.00511829 0)
(3.002 0.0093403 0)
(3.0726 0.061099 0)
(2.80704 0.246037 0)
(1.39101 0.776978 0)
(0.622242 0.533462 0)
(0.724684 0.553681 0)
(0.749251 0.632988 0)
(0.759246 0.681257 0)
(0.749025 0.737547 0)
(0.72686 0.774716 0)
(0.79467 0.847911 0)
(0.874017 0.875977 0)
(3 -2.73237e-15 0)
(3 2.03727e-14 0)
(3 2.77691e-13 0)
(3 2.54025e-12 0)
(3 -5.78065e-12 0)
(3 2.44056e-10 0)
(3 4.48285e-10 0)
(3 1.34002e-08 0)
(3 6.59677e-08 0)
(3 9.10666e-07 0)
(2.99998 5.97606e-06 0)
(3.00019 6.19304e-05 0)
(2.99957 0.00051472 0)
(3.00056 0.00408358 0)
(3.06787 0.0384936 0)
(2.93264 0.143886 0)
(2.00922 0.869323 0)
(0.653586 0.59076 0)
(0.737148 0.57549 0)
(0.766527 0.625066 0)
(0.778627 0.691071 0)
(0.809603 0.756572 0)
(0.8366 0.796042 0)
(0.896391 0.849681 0)
(0.974126 0.849139 0)
(3 -5.95618e-16 0)
(3 8.23682e-15 0)
(3 2.49357e-14 0)
(3 5.85744e-13 0)
(3 7.25805e-12 0)
(3 2.94495e-11 0)
(3 -5.41037e-10 0)
(3 1.01459e-08 0)
(3 7.35283e-09 0)
(3 5.53067e-07 0)
(3.00002 8.6025e-07 0)
(2.99994 3.65171e-05 0)
(3.00084 0.000159427 0)
(2.9987 0.00236008 0)
(3.05044 0.0241523 0)
(2.97869 0.0918242 0)
(2.40889 0.745281 0)
(0.846524 0.692252 0)
(0.796984 0.612052 0)
(0.800589 0.633195 0)
(0.81291 0.684304 0)
(0.846383 0.74762 0)
(0.896847 0.798395 0)
(0.975658 0.853244 0)
(1.05383 0.849671 0)
(3 3.24503e-15 0)
(3 3.30372e-14 0)
(3 5.02868e-14 0)
(3 1.40517e-12 0)
(3 1.08204e-11 0)
(3 5.98585e-12 0)
(3 7.14457e-10 0)
(3 3.81563e-10 0)
(3 4.55745e-08 0)
(3 1.17078e-07 0)
(3.00001 2.89234e-06 0)
(2.99995 1.61176e-05 0)
(3.00058 0.000219219 0)
(2.99875 0.00157656 0)
(3.03263 0.0178802 0)
(3.02169 0.106601 0)
(2.66371 0.57988 0)
(1.14385 0.79647 0)
(0.848629 0.664551 0)
(0.851394 0.661208 0)
(0.856763 0.692 0)
(0.884937 0.74198 0)
(0.939632 0.784946 0)
(1.01572 0.835257 0)
(1.10528 0.841116 0)
(3 2.21497e-15 0)
(3 5.19581e-14 0)
(3 -9.97135e-14 0)
(3 1.26192e-12 0)
(3 3.04773e-12 0)
(3 9.24582e-11 0)
(3 2.3659e-09 0)
(3 -2.0662e-09 0)
(3 4.5693e-08 0)
(3 9.9732e-10 0)
(3 2.03403e-06 0)
(3.00001 4.85436e-06 0)
(3.0001 0.000121887 0)
(3.00069 0.000657568 0)
(3.00782 0.00817646 0)
(3.06908 0.0800153 0)
(2.87293 0.425014 0)
(1.61303 0.889794 0)
(0.855895 0.703198 0)
(0.879956 0.696304 0)
(0.896432 0.715411 0)
(0.91904 0.75141 0)
(0.966371 0.782262 0)
(1.03858 0.816541 0)
(1.12581 0.829707 0)
(3 -2.25545e-16 0)
(3 5.47162e-15 0)
(3 3.7103e-14 0)
(3 7.20105e-14 0)
(3 2.47435e-12 0)
(3 1.66733e-11 0)
(3 1.83871e-10 0)
(3 1.16564e-09 0)
(3 1.37297e-08 0)
(3 1.09621e-07 0)
(3 1.0473e-06 0)
(3.00003 8.87122e-06 0)
(2.99986 8.10017e-05 0)
(3.00166 0.000693345 0)
(2.99641 0.00618806 0)
(3.09132 0.0510149 0)
(3.00815 0.247319 0)
(2.24875 0.969158 0)
(0.952157 0.772416 0)
(0.930349 0.726224 0)
(0.940924 0.726363 0)
(0.962112 0.745982 0)
(1.00243 0.768141 0)
(1.06501 0.794847 0)
(1.14468 0.810222 0)
(3 9.00134e-17 0)
(3 5.31721e-15 0)
(3 1.05631e-14 0)
(3 2.16944e-13 0)
(3 3.69593e-12 0)
(3 -8.79156e-12 0)
(3 2.78336e-10 0)
(3 2.38826e-09 0)
(3 -2.66711e-09 0)
(3 9.2668e-08 0)
(3 -2.33102e-07 0)
(3 4.58482e-06 0)
(3.00002 1.95459e-05 0)
(3.00027 4.27855e-05 0)
(3.00157 0.00471483 0)
(3.02531 -0.0819815 0)
(3.04804 0.175927 0)
(2.66532 0.803579 0)
(1.25998 0.863746 0)
(0.988569 0.767515 0)
(0.987824 0.745184 0)
(1.00528 0.754971 0)
(1.03812 0.769404 0)
(1.08937 0.788483 0)
(1.16126 0.796683 0)
(3 -8.70856e-16 0)
(3 2.1404e-15 0)
(3 1.13768e-14 0)
(3 8.10446e-14 0)
(3 5.93891e-13 0)
(3 6.94869e-12 0)
(3 6.25339e-11 0)
(3 5.29179e-10 0)
(3 3.14476e-09 0)
(3 3.23529e-08 0)
(3 3.16609e-07 0)
(2.99999 2.91483e-06 0)
(3.00008 2.44028e-05 0)
(2.99911 0.00021985 0)
(3.00692 0.00183676 0)
(2.97564 0.0162752 0)
(3.15658 0.11939 0)
(2.96194 0.567212 0)
(1.79557 0.930936 0)
(1.0311 0.805087 0)
(1.03096 0.770994 0)
(1.0475 0.774058 0)
(1.07651 0.77874 0)
(1.11942 0.785928 0)
(1.17797 0.790359 0)
(3 6.82348e-17 0)
(3 1.73578e-16 0)
(3 1.66877e-14 0)
(3 -3.43949e-13 0)
(3 1.07848e-12 0)
(3 1.31798e-11 0)
(3 5.71333e-12 0)
(3 6.86968e-10 0)
(3 -3.33913e-09 0)
(3 3.31051e-08 0)
(3 3.46898e-07 0)
(3 7.81397e-07 0)
(3.00001 1.65687e-05 0)
(3.00004 1.95134e-06 0)
(3.00055 0.000219417 0)
(3.00318 0.0106396 0)
(3.04403 -0.224651 0)
(3.06742 0.377821 0)
(2.41219 1.04386 0)
(1.17756 0.881674 0)
(1.07977 0.83013 0)
(1.08706 0.791873 0)
(1.11054 0.787182 0)
(1.14926 0.786883 0)
(1.19964 0.786316 0)
(3 2.16978e-16 0)
(3 7.55897e-16 0)
(3 4.10916e-15 0)
(3 2.75546e-14 0)
(3 2.43222e-13 0)
(3 2.21315e-12 0)
(3 1.66662e-11 0)
(3 1.48004e-10 0)
(3 1.12831e-09 0)
(3 9.56537e-09 0)
(3 8.48436e-08 0)
(3 6.4621e-07 0)
(3.00003 5.75334e-06 0)
(2.99999 4.14766e-05 0)
(2.99829 0.000401969 0)
(3.01494 0.00322976 0)
(2.94017 0.0269541 0)
(3.23761 0.21763 0)
(2.91047 0.812103 0)
(1.62329 0.957383 0)
(1.14823 0.856774 0)
(1.13772 0.805553 0)
(1.15355 0.798668 0)
(1.18393 0.792377 0)
(1.22508 0.78887 0)
(3 5.0716e-17 0)
(3 2.69794e-15 0)
(3 -5.2022e-15 0)
(3 1.09071e-13 0)
(3 6.35983e-14 0)
(3 3.9963e-12 0)
(3 -1.01191e-11 0)
(3 2.05737e-10 0)
(3 2.07238e-09 0)
(3 5.86795e-10 0)
(3 7.89052e-08 0)
(3 1.32507e-07 0)
(3 3.79346e-06 0)
(3.00002 4.63035e-05 0)
(3.00006 -3.60154e-05 0)
(3.00096 0.000660762 0)
(3.00496 0.0141712 0)
(3.06972 -0.32709 0)
(3.07449 0.604253 0)
(2.25606 1.07462 0)
(1.2214 0.896489 0)
(1.18005 0.850236 0)
(1.19632 0.813476 0)
(1.21828 0.802783 0)
(1.25267 0.794895 0)
(3 -8.75944e-22 0)
(3 -5.63795e-16 0)
(3 1.04637e-15 0)
(3 9.4803e-15 0)
(3 6.53468e-14 0)
(3 2.83663e-13 0)
(3 4.0874e-12 0)
(3 3.12475e-11 0)
(3 2.91976e-10 0)
(3 2.07589e-09 0)
(3 7.5681e-09 0)
(3 9.67221e-08 0)
(3 1.1473e-06 0)
(3.00004 9.53557e-06 0)
(2.99997 6.48848e-05 0)
(2.99794 0.000659021 0)
(3.01788 0.00517751 0)
(2.92354 0.0414428 0)
(3.31633 0.356471 0)
(2.89036 0.997915 0)
(1.60274 0.976774 0)
(1.25793 0.900785 0)
(1.24034 0.836161 0)
(1.25552 0.825307 0)
(1.28258 0.812848 0)
(3 5.13167e-17 0)
(3 1.52255e-16 0)
(3 7.08311e-16 0)
(3 7.08124e-15 0)
(3 9.15664e-15 0)
(3 3.15906e-13 0)
(3 2.54579e-12 0)
(3 1.91227e-11 0)
(3 -4.16845e-11 0)
(3 3.62781e-10 0)
(3 -1.30443e-08 0)
(3 1.05648e-07 0)
(3 -4.54184e-08 0)
(3 7.13016e-06 0)
(3.00002 5.55619e-05 0)
(3.00009 -2.62493e-05 0)
(3.00127 0.000840197 0)
(3.00746 0.0176939 0)
(3.08138 -0.286827 0)
(3.10683 0.722907 0)
(2.23431 1.05719 0)
(1.33331 0.914513 0)
(1.2804 0.875853 0)
(1.29882 0.839701 0)
(1.31798 0.825203 0)
(3 5.13175e-17 0)
(3 3.18438e-16 0)
(3 9.65865e-17 0)
(3 1.75252e-15 0)
(3 1.02489e-14 0)
(3 8.73329e-14 0)
(3 7.31612e-13 0)
(3 5.41585e-12 0)
(3 5.30392e-11 0)
(3 3.60467e-10 0)
(3 3.04775e-09 0)
(3 2.45461e-08 0)
(3 2.0989e-07 0)
(3 1.69295e-06 0)
(3.00005 1.3723e-05 0)
(2.99998 9.18204e-05 0)
(2.99744 0.000899818 0)
(3.02252 0.00706934 0)
(2.92094 0.0540292 0)
(3.3576 0.440045 0)
(2.8933 1.06942 0)
(1.66 0.994459 0)
(1.36189 0.947474 0)
(1.33671 0.871419 0)
(1.35036 0.857021 0)
(3 2.07957e-17 0)
(3 -6.62402e-17 0)
(3 -1.2808e-15 0)
(3 5.28412e-15 0)
(3 -9.40172e-17 0)
(3 8.37663e-14 0)
(3 -5.39282e-13 0)
(3 6.73403e-12 0)
(3 -2.30816e-11 0)
(3 2.78538e-10 0)
(3 3.58988e-09 0)
(3 2.01783e-09 0)
(3 1.07899e-07 0)
(3 3.21795e-07 0)
(3 7.69893e-06 0)
(3.00004 7.80112e-05 0)
(3.00008 3.95902e-06 0)
(3.00182 0.000311622 0)
(3.00863 0.0186511 0)
(3.09655 -0.312581 0)
(3.13095 0.769044 0)
(2.25893 1.05082 0)
(1.43523 0.943697 0)
(1.37744 0.914095 0)
(1.39227 0.867775 0)
(3 1.71758e-18 0)
(3 2.09638e-16 0)
(3 2.60827e-16 0)
(3 4.71979e-16 0)
(3 2.08138e-15 0)
(3 1.16723e-14 0)
(3 1.48778e-13 0)
(3 1.0362e-12 0)
(3 8.89063e-12 0)
(3 3.97083e-11 0)
(3 5.75222e-10 0)
(3 3.94081e-09 0)
(3 3.6524e-08 0)
(3 2.85021e-07 0)
(3 2.93227e-06 0)
(3.00002 -6.71434e-05 0)
(3.00004 0.000143045 0)
(3.00043 0.000751545 0)
(3.00901 0.00793742 0)
(2.89851 0.0597077 0)
(3.39279 0.477246 0)
(2.93727 1.09741 0)
(1.75734 1.0199 0)
(1.4476 0.982212 0)
(1.42192 0.90389 0)
(3 7.65245e-17 0)
(3 1.81854e-16 0)
(3 2.75632e-16 0)
(3 1.43657e-16 0)
(3 2.2347e-15 0)
(3 2.04362e-14 0)
(3 -2.36065e-14 0)
(3 9.13429e-13 0)
(3 6.49672e-13 0)
(3 4.22515e-11 0)
(3 1.83595e-10 0)
(3 9.19623e-10 0)
(3 1.27554e-08 0)
(3 9.72123e-08 0)
(3 7.19835e-07 0)
(2.99999 8.15274e-06 0)
(3.00007 3.34258e-05 0)
(3.00004 0.000429591 0)
(3.00213 0.000310446 0)
(3.00496 0.0102459 0)
(3.12439 -0.240916 0)
(3.1931 0.782732 0)
(2.3913 1.07261 0)
(1.53362 0.965417 0)
(1.47328 0.937073 0)
(3 -1.53954e-16 0)
(3 -4.88032e-17 0)
(3 -6.66897e-16 0)
(3 -7.38962e-16 0)
(3 -8.28864e-16 0)
(3 2.46549e-15 0)
(3 2.06055e-14 0)
(3 1.27796e-13 0)
(3 9.70631e-13 0)
(3 5.39872e-12 0)
(3 6.83345e-11 0)
(3 5.02465e-10 0)
(3 2.51516e-09 0)
(3 -1.27023e-08 0)
(3 2.13751e-07 0)
(3 5.15489e-07 0)
(3.00002 1.37618e-05 0)
(3 0.000108545 0)
(2.9981 0.00111571 0)
(3.01836 0.00754714 0)
(2.92016 0.0601204 0)
(3.38337 0.43662 0)
(3.0147 1.09072 0)
(1.89809 1.04113 0)
(1.53278 1.01155 0)
(3 1.5314e-50 0)
(3 7.37666e-17 0)
(3 -8.04767e-17 0)
(3 -1.34177e-16 0)
(3 -2.13789e-16 0)
(3 1.1288e-15 0)
(3 1.94378e-15 0)
(3 4.80172e-14 0)
(3 2.42053e-13 0)
(3 2.64314e-12 0)
(3 1.69055e-11 0)
(3 -2.81755e-11 0)
(3 1.31754e-09 0)
(3 1.24265e-08 0)
(3 4.56269e-08 0)
(3 7.81104e-07 0)
(2.99999 6.92962e-06 0)
(3.00006 4.80896e-05 0)
(2.99988 -2.11366e-05 0)
(3.00304 0.0021887 0)
(3.00174 0.0056106 0)
(3.14032 -0.0349762 0)
(3.3131 0.689701 0)
(2.58391 1.04987 0)
(1.66512 0.967278 0)
(3 -2.96283e-33 0)
(3 -1.24985e-16 0)
(3 -7.34648e-17 0)
(3 1.2922e-16 0)
(3 3.09616e-16 0)
(3 4.95896e-16 0)
(3 2.06759e-15 0)
(3 1.97296e-14 0)
(3 4.7095e-14 0)
(3 1.48407e-12 0)
(3 -3.08424e-13 0)
(3 7.00041e-11 0)
(3 4.91163e-10 0)
(3 4.60536e-09 0)
(3 4.6604e-08 0)
(3 3.62467e-07 0)
(3 7.01583e-07 0)
(2.99999 1.35427e-05 0)
(3.00017 8.15022e-05 0)
(2.99931 0.000910658 0)
(3.00926 0.00605174 0)
(2.97154 0.0531995 0)
(3.33531 0.396458 0)
(3.11246 1.02355 0)
(2.11055 1.05971 0)
(3 -1.02638e-16 0)
(3 -2.54384e-16 0)
(3 -2.69655e-16 0)
(3 -2.64351e-16 0)
(3 -1.42683e-16 0)
(3 -6.3239e-16 0)
(3 9.50653e-16 0)
(3 9.62968e-17 0)
(3 3.17504e-14 0)
(3 3.03554e-13 0)
(3 2.28585e-12 0)
(3 2.58311e-11 0)
(3 2.00317e-10 0)
(3 2.78588e-10 0)
(3 9.58659e-09 0)
(3 4.10731e-08 0)
(3 5.5227e-07 0)
(3 2.14212e-06 0)
(3.00004 2.93263e-05 0)
(2.99996 0.000118635 0)
(3.0023 0.00179984 0)
(3.00157 0.00934069 0)
(3.12802 0.0194133 0)
(3.35103 0.599617 0)
(2.77778 1.04052 0)
(3 -1.53959e-16 0)
(3 -5.13183e-17 0)
(3 -2.56592e-16 0)
(3 -3.07909e-16 0)
(3 -7.18465e-16 0)
(3 -9.54511e-16 0)
(3 -1.14238e-15 0)
(3 5.52758e-16 0)
(3 3.62535e-15 0)
(3 8.61634e-14 0)
(3 3.94189e-13 0)
(3 -4.73907e-12 0)
(3 5.86209e-11 0)
(3 -1.70092e-10 0)
(3 2.75565e-09 0)
(3 1.15841e-08 0)
(3 1.28719e-07 0)
(3 7.65016e-07 0)
(2.99999 1.04907e-05 0)
(3.00019 6.93957e-05 0)
(2.99933 0.000709821 0)
(3.00777 0.00479108 0)
(2.97967 0.0428784 0)
(3.34779 0.247298 0)
(3.21965 0.945398 0)
(3 -6.04381e-17 0)
(3 1.53957e-16 0)
(3 2.56595e-16 0)
(3 2.56595e-16 0)
(3 1.53947e-16 0)
(3 3.59205e-16 0)
(3 5.15808e-16 0)
(3 3.6854e-15 0)
(3 -1.68434e-14 0)
(3 2.87056e-14 0)
(3 1.71136e-13 0)
(3 1.73425e-12 0)
(3 1.16056e-11 0)
(3 1.00973e-10 0)
(3 7.15666e-10 0)
(3 5.6098e-09 0)
(3 -3.58572e-08 0)
(3 4.05472e-07 0)
(3 1.57028e-06 0)
(3.00001 1.49769e-05 0)
(3.00007 0.000158507 0)
(3.00098 -0.000978042 0)
(3.00396 0.00640014 0)
(3.08917 0.0531013 0)
(3.37985 0.484683 0)
(3 5.13189e-17 0)
(3 3.84822e-17 0)
(3 2.05276e-16 0)
(3 1.94647e-16 0)
(3 4.62279e-16 0)
(3 2.31898e-16 0)
(3 1.16701e-15 0)
(3 6.25655e-16 0)
(3 1.27826e-15 0)
(3 5.81475e-15 0)
(3 5.62181e-14 0)
(3 -1.41886e-12 0)
(3 4.68902e-12 0)
(3 1.25443e-11 0)
(3 2.62278e-10 0)
(3 1.26619e-09 0)
(3 1.66125e-08 0)
(3 7.05331e-08 0)
(3 8.69129e-07 0)
(3.00001 8.84196e-06 0)
(3 5.62942e-05 0)
(2.99945 0.000564244 0)
(3.00202 -0.0200815 0)
(3.00357 0.0341654 0)
(3.18186 0.0932236 0)
(3 1.53957e-16 0)
(3 1.53957e-16 0)
(3 1.22212e-17 0)
(3 1.89275e-16 0)
(3 2.75968e-16 0)
(3 1.94757e-16 0)
(3 7.0425e-16 0)
(3 1.01765e-15 0)
(3 1.00663e-15 0)
(3 7.136e-15 0)
(3 1.09328e-14 0)
(3 2.42434e-13 0)
(3 1.14307e-12 0)
(3 9.75371e-12 0)
(3 6.15877e-11 0)
(3 1.00363e-09 0)
(3 4.84715e-09 0)
(3 3.70976e-08 0)
(3 5.07069e-08 0)
(3 2.51081e-06 0)
(2.99999 1.13428e-05 0)
(3.0002 6.9298e-06 0)
(2.99892 0.000716197 0)
(3.01286 0.00600261 0)
(3.00343 0.0543258 0)
(3 -1.02638e-16 0)
(3 6.74829e-18 0)
(3 -4.30033e-17 0)
(3 1.54346e-16 0)
(3 1.57309e-16 0)
(3 2.59796e-16 0)
(3 4.15305e-16 0)
(3 1.08417e-15 0)
(3 7.14267e-16 0)
(3 2.50806e-15 0)
(3 4.86777e-15 0)
(3 8.56906e-14 0)
(3 3.77757e-13 0)
(3 2.84778e-12 0)
(3 3.22736e-11 0)
(3 -2.87402e-11 0)
(3 2.09033e-09 0)
(3 1.14097e-08 0)
(3 1.08007e-07 0)
(3 7.29837e-07 0)
(3 -3.80036e-07 0)
(3 -1.75033e-06 0)
(3.00017 -0.000393829 0)
(3.00011 0.00134881 0)
(3.00951 -0.00717581 0)
(3 5.13189e-17 0)
(3 1.43625e-16 0)
(3 -4.29806e-17 0)
(3 1.5099e-16 0)
(3 1.56871e-16 0)
(3 1.08708e-16 0)
(3 4.19689e-17 0)
(3 -1.01829e-16 0)
(3 -6.74951e-16 0)
(3 -8.92399e-16 0)
(3 2.19341e-15 0)
(3 2.87087e-14 0)
(3 -1.81863e-13 0)
(3 2.23214e-12 0)
(3 8.82127e-12 0)
(3 9.70656e-11 0)
(3 2.88045e-10 0)
(3 4.84141e-09 0)
(3 2.0694e-09 0)
(3 -2.14574e-07 0)
(3 9.94043e-07 0)
(3 4.47247e-06 0)
(2.99994 4.80265e-05 0)
(3.00063 0.000342789 0)
(2.9994 0.00319139 0)
(3 1.1743e-16 0)
(3 3.01361e-16 0)
(3 5.4767e-16 0)
(3 -5.65775e-17 0)
(3 3.90655e-17 0)
(3 -6.72497e-16 0)
(3 -1.07403e-15 0)
(3 -1.18449e-15 0)
(3 -1.29045e-15 0)
(3 -1.10565e-15 0)
(3 4.05679e-16 0)
(3 1.23456e-14 0)
(3 3.53118e-14 0)
(3 -4.26537e-13 0)
(3 3.94922e-12 0)
(3 3.7662e-12 0)
(3 1.05041e-10 0)
(3 1.10263e-09 0)
(3 4.75283e-10 0)
(3 4.56874e-08 0)
(3 2.09015e-07 0)
(3 1.44328e-06 0)
(2.99999 7.46223e-06 0)
(3.00007 -6.24972e-05 0)
(3.00031 0.000896496 0)
(3 -5.13189e-17 0)
(3 -2.56595e-16 0)
(3 -2.56595e-16 0)
(3 -3.07913e-16 0)
(3 -2.56595e-16 0)
(3 -2.47109e-16 0)
(3 -2.6608e-16 0)
(3 -1.02638e-16 0)
(3 9.71272e-17 0)
(3 4.33928e-16 0)
(3 1.83945e-16 0)
(3 4.16454e-15 0)
(3 1.11314e-14 0)
(3 1.23606e-13 0)
(3 8.10965e-13 0)
(3 4.95363e-12 0)
(3 3.82822e-11 0)
(3 3.32456e-10 0)
(3 -1.72293e-10 0)
(3 3.99609e-09 0)
(3 7.33058e-08 0)
(3 5.34561e-07 0)
(3 2.39458e-06 0)
(3 3.01844e-05 0)
(3.00022 0.000193483 0)
(3 2.06546e-17 0)
(3 -1.25766e-16 0)
(3 1.02328e-16 0)
(3 3.07543e-16 0)
(3 4.1698e-16 0)
(3 3.72771e-16 0)
(3 5.543e-16 0)
(3 4.06991e-16 0)
(3 5.15135e-16 0)
(3 2.03482e-16 0)
(3 -1.14042e-16 0)
(3 2.74249e-16 0)
(3 3.98008e-15 0)
(3 3.15935e-14 0)
(3 1.8687e-13 0)
(3 1.0272e-12 0)
(3 1.38905e-11 0)
(3 6.03581e-11 0)
(3 3.48131e-10 0)
(3 9.14404e-10 0)
(3 1.62832e-08 0)
(3 5.0608e-08 0)
(3 5.28809e-07 0)
(2.99999 -1.10587e-08 0)
(3.0001 1.10365e-05 0)
(3 1.53957e-16 0)
(3 2.90643e-16 0)
(3 1.82139e-16 0)
(3 1.02638e-16 0)
(3 1.53957e-16 0)
(3 9.80377e-17 0)
(3 2.09898e-16 0)
(3 3.07923e-16 0)
(3 3.07911e-16 0)
(3 3.07913e-16 0)
(3 2.34924e-16 0)
(3 -2.51283e-17 0)
(3 1.33941e-15 0)
(3 6.07487e-15 0)
(3 4.87063e-14 0)
(3 3.16377e-13 0)
(3 1.70237e-12 0)
(3 2.01975e-11 0)
(3 6.04521e-11 0)
(3 1.04673e-09 0)
(3 8.59706e-09 0)
(3 -7.60133e-09 0)
(3 2.67428e-07 0)
(3 1.31982e-06 0)
(3.00002 1.71145e-05 0)
(3 -1.02638e-16 0)
(3 -3.59232e-16 0)
(3 -3.77615e-16 0)
(3 -7.69784e-16 0)
(3 -7.69784e-16 0)
(3 -7.1468e-16 0)
(3 -6.19602e-16 0)
(3 -6.06149e-16 0)
(3 -6.25489e-16 0)
(3 -5.13237e-16 0)
(3 -5.64938e-16 0)
(3 -7.90632e-16 0)
(3 -8.40352e-16 0)
(3 3.51388e-16 0)
(3 1.33991e-14 0)
(3 5.2259e-14 0)
(3 8.84191e-13 0)
(3 -1.24405e-12 0)
(3 2.85784e-11 0)
(3 9.74749e-11 0)
(3 1.52491e-09 0)
(3 1.2243e-08 0)
(3 1.81203e-07 0)
(3 -3.59787e-07 0)
(3 3.02333e-06 0)
(3 -1.02638e-16 0)
(3 -1.53957e-16 0)
(3 -1.53957e-16 0)
(3 -5.13189e-17 0)
(3 -5.13189e-17 0)
(3 -1.02638e-16 0)
(3 -5.13189e-17 0)
(3 -5.64508e-16 0)
(3 -7.18465e-16 0)
(3 -8.72421e-16 0)
(3 -9.32346e-16 0)
(3 -1.03233e-15 0)
(3 -7.84856e-16 0)
(3 -6.29515e-16 0)
(3 8.91347e-16 0)
(3 1.24208e-14 0)
(3 1.90128e-13 0)
(3 1.30419e-12 0)
(3 7.98071e-12 0)
(3 5.37364e-11 0)
(3 4.40627e-10 0)
(3 2.44821e-10 0)
(3 1.23771e-08 0)
(3 4.72453e-08 0)
(3 1.85982e-07 0)
(3 5.13189e-17 0)
(3 -5.13189e-17 0)
(3 5.13189e-17 0)
(3 9.19145e-18 0)
(3 9.34464e-17 0)
(3 -1.02638e-16 0)
(3 -1.02638e-16 0)
(3 -1.02638e-16 0)
(3 -1.02638e-16 0)
(3 -3.07913e-16 0)
(3 -4.01648e-16 0)
(3 -3.98472e-16 0)
(3 -2.99461e-16 0)
(3 -4.49562e-16 0)
(3 5.45776e-16 0)
(3 7.17453e-15 0)
(3 5.68405e-14 0)
(3 4.62558e-14 0)
(3 5.41991e-14 0)
(3 1.34101e-11 0)
(3 5.35946e-11 0)
(3 6.01667e-10 0)
(3 4.17146e-09 0)
(3 4.9551e-09 0)
(3 -1.37327e-07 0)
(3 5.13189e-17 0)
(3 1.55253e-16 0)
(3 5.00227e-17 0)
(3 6.51061e-17 0)
(3 3.75317e-17 0)
(3 -2.56595e-16 0)
(3 -5.13189e-16 0)
(3 -6.67146e-16 0)
(3 -8.72421e-16 0)
(3 -8.72421e-16 0)
(3 -8.72421e-16 0)
(3 -9.23984e-16 0)
(3 -9.24302e-16 0)
(3 -9.53926e-16 0)
(3 -8.13867e-16 0)
(3 -9.98625e-16 0)
(3 5.329e-15 0)
(3 1.30837e-14 0)
(3 6.38434e-13 0)
(3 3.88606e-13 0)
(3 1.66974e-11 0)
(3 -1.6821e-10 0)
(3 -3.6939e-11 0)
(3 7.35248e-09 0)
(3 1.03019e-09 0)
(3 5.13189e-17 0)
(3 2.05276e-16 0)
(3 3.07913e-16 0)
(3 3.07913e-16 0)
(3 4.10551e-16 0)
(3 4.6187e-16 0)
(3 4.6187e-16 0)
(3 4.56793e-16 0)
(3 5.76177e-16 0)
(3 2.44723e-16 0)
(3 2.99583e-16 0)
(3 -3.2029e-16 0)
(3 -6.28599e-16 0)
(3 -8.10771e-16 0)
(3 -9.16294e-16 0)
(3 -5.53725e-16 0)
(3 -4.12461e-15 0)
(3 -6.02005e-14 0)
(3 2.11829e-13 0)
(3 -2.34895e-12 0)
(3 1.32434e-12 0)
(3 -1.83569e-10 0)
(3 -7.27537e-10 0)
(3 3.80917e-09 0)
(3 -2.06659e-08 0)
(3 -5.13189e-17 0)
(3 -1.02638e-16 0)
(3 -3.07913e-16 0)
(3 -3.74676e-16 0)
(3 -4.49955e-16 0)
(3 -5.28839e-16 0)
(3 -2.92263e-16 0)
(3 -1.09732e-16 0)
(3 -5.13189e-17 0)
(3 -1.53957e-16 0)
(3 -2.05276e-16 0)
(3 -3.59232e-16 0)
(3 -3.59232e-16 0)
(3 -4.6187e-16 0)
(3 -4.6859e-16 0)
(3 -4.9143e-16 0)
(3 1.48112e-15 0)
(3 1.28709e-14 0)
(3 4.69851e-14 0)
(3 4.54254e-13 0)
(3 2.06098e-12 0)
(3 3.19899e-11 0)
(3 1.93703e-10 0)
(3 1.22131e-09 0)
(3 7.11868e-10 0)
(3 -1.02638e-16 0)
(3 -2.56595e-16 0)
(3 -5.64508e-16 0)
(3 -7.18465e-16 0)
(3 -8.72421e-16 0)
(3 -9.75059e-16 0)
(3 -9.11147e-16 0)
(3 -1.15294e-15 0)
(3 -1.10509e-15 0)
(3 -9.2374e-16 0)
(3 -6.15827e-16 0)
(3 -2.56595e-16 0)
(3 5.13189e-17 0)
(3 3.59232e-16 0)
(3 6.67137e-16 0)
(3 8.20997e-16 0)
(3 7.73543e-16 0)
(3 4.20502e-16 0)
(3 1.57914e-14 0)
(3 -9.74354e-14 0)
(3 -1.21797e-13 0)
(3 -4.08715e-12 0)
(3 -1.91526e-11 0)
(3 1.52652e-10 0)
(3 -1.27087e-09 0)
(1.18271 1.03551 0)
(0.589774 0.635319 0)
(-0.554239 0.0595719 0)
(-0.40883 -0.146314 0)
(-0.582704 -0.157849 0)
(-0.456706 -0.0964173 0)
(-0.656878 0.0754002 0)
(-0.967842 0.137991 0)
(-1.14794 0.141044 0)
(-1.22808 0.0988265 0)
(-1.24685 0.0617664 0)
(-1.23768 0.0287891 0)
(-1.23414 0.0280431 0)
(-1.25292 0.0187036 0)
(-1.33948 -0.00205416 0)
(-1.40978 -0.0210921 0)
(-1.45584 -0.0206816 0)
(-1.47802 -0.0176889 0)
(-1.4852 -0.0156837 0)
(-1.4794 -0.0105855 0)
(-1.47752 -0.00860667 0)
(-1.47658 -0.00819196 0)
(-1.48145 -0.00585385 0)
(-1.48515 -0.00569674 0)
(-1.49264 -0.00341995 0)
(-1.49919 -0.00235614 0)
(-1.50729 0.00207118 0)
(-1.51228 0.00593463 0)
(-1.51445 0.00737489 0)
(-1.51568 0.00700064 0)
(-1.50859 0.00804735 0)
(-1.47903 0.00940581 0)
(-1.4523 0.00947099 0)
(-1.39567 0.00926018 0)
(-1.33187 0.00188179 0)
(-1.25239 -0.010445 0)
(-1.1715 -0.0225501 0)
(-1.08791 -0.0330045 0)
(-0.98858 -0.0451107 0)
(-0.899492 -0.0521914 0)
(-0.81702 -0.045809 0)
(-0.729248 -0.0334967 0)
(-0.641457 -0.0129992 0)
(-0.540197 -0.0141568 0)
(-0.443851 -0.00817051 0)
(-0.360428 0.010914 0)
(-0.285723 -0.0070979 0)
(-0.183719 -0.0209879 0)
(-0.0942675 -0.0249896 0)
(-0.00500874 -0.0304745 0)
(0.0849563 -0.0301435 0)
(0.161755 -0.0272063 0)
(0.233449 -0.0271793 0)
(0.301945 -0.028162 0)
(0.367034 -0.0280497 0)
(0.427833 -0.027637 0)
(0.485001 -0.02702 0)
(0.538464 -0.0254803 0)
(0.588023 -0.0233036 0)
(0.633831 -0.0211862 0)
(0.676629 -0.0195562 0)
(0.716845 -0.0182115 0)
(0.754851 -0.0171744 0)
(0.790811 -0.0161334 0)
(0.8251 -0.0150174 0)
(0.858092 -0.0138526 0)
(0.889747 -0.0127964 0)
(0.920029 -0.0117387 0)
(0.948675 -0.0108696 0)
(0.976046 -0.0101307 0)
(1.0019 -0.00944189 0)
(1.02672 -0.00865199 0)
(1.05005 -0.00797062 0)
(1.07259 -0.00731288 0)
(1.0939 -0.00680222 0)
(1.11467 -0.00632183 0)
(1.13441 -0.00599078 0)
(1.15366 -0.00563614 0)
(1.17207 -0.00537591 0)
(1.1901 -0.00505623 0)
(1.20754 -0.00481341 0)
(1.22471 -0.00447215 0)
(1.24154 -0.00422105 0)
(1.25817 -0.00389028 0)
(1.27444 -0.00365669 0)
(1.29056 -0.00334444 0)
(1.30594 -0.00311442 0)
(1.32121 -0.0028169 0)
(1.33508 -0.00261558 0)
(1.34877 -0.00235508 0)
(1.36113 -0.00223362 0)
(1.37342 -0.00204718 0)
(1.38525 -0.00204073 0)
(1.39702 -0.0018827 0)
(1.40881 -0.00196635 0)
(1.42055 -0.00175245 0)
(1.43269 -0.00197917 0)
(1.4448 -0.00159137 0)
(1.45781 -0.0016777 0)
(1.47264 -0.000182299 0)
(1.22199 0.940144 0)
(1.17717 0.729629 0)
(0.743138 0.568243 0)
(0.664443 0.289273 0)
(0.196456 0.180007 0)
(-0.114629 0.126579 0)
(-0.308723 0.221277 0)
(-0.728476 0.141943 0)
(-0.856468 0.0358245 0)
(-0.906667 -0.0122263 0)
(-0.84341 -0.0508469 0)
(-0.81146 -0.0415076 0)
(-0.803026 -0.0325693 0)
(-0.859589 -0.0173838 0)
(-0.951388 -0.0111863 0)
(-1.02988 0.0368353 0)
(-1.07993 0.0571221 0)
(-1.09892 0.0459456 0)
(-1.10277 0.031834 0)
(-1.09517 0.0144137 0)
(-1.09332 0.0095017 0)
(-1.09265 0.00845125 0)
(-1.09764 0.0100192 0)
(-1.10038 0.00640423 0)
(-1.1071 0.00455343 0)
(-1.11194 -0.00525466 0)
(-1.12872 -0.00095561 0)
(-1.1396 -0.00624751 0)
(-1.14605 -0.00393565 0)
(-1.14692 -0.00575848 0)
(-1.13463 -0.0043536 0)
(-1.10369 -0.0123655 0)
(-1.07215 -0.0113905 0)
(-1.01493 -0.0177407 0)
(-0.948833 -0.020603 0)
(-0.849735 -0.0309559 0)
(-0.752137 -0.0386142 0)
(-0.653969 -0.0183417 0)
(-0.526878 -0.0475308 0)
(-0.428521 -0.0387817 0)
(-0.338184 -0.0321232 0)
(-0.194002 -0.0695984 0)
(-0.100607 -0.0954442 0)
(0.0837377 -0.125871 0)
(0.199781 -0.130626 0)
(0.328268 -0.136074 0)
(0.463903 -0.135068 0)
(0.56053 -0.137054 0)
(0.63995 -0.124903 0)
(0.710033 -0.117989 0)
(0.767028 -0.109135 0)
(0.820113 -0.0981214 0)
(0.870885 -0.0905306 0)
(0.913637 -0.0834419 0)
(0.953031 -0.0761331 0)
(0.987796 -0.0693399 0)
(1.02111 -0.062535 0)
(1.05222 -0.0562742 0)
(1.08151 -0.050994 0)
(1.10883 -0.0463886 0)
(1.1348 -0.0425945 0)
(1.15884 -0.0392142 0)
(1.1822 -0.0361068 0)
(1.2048 -0.0331387 0)
(1.22664 -0.0308068 0)
(1.24805 -0.028752 0)
(1.26863 -0.0266547 0)
(1.28822 -0.0243416 0)
(1.30746 -0.022046 0)
(1.32598 -0.0198706 0)
(1.34359 -0.0179017 0)
(1.36085 -0.0161052 0)
(1.37714 -0.0146325 0)
(1.39295 -0.0133831 0)
(1.40793 -0.0123063 0)
(1.42267 -0.0112263 0)
(1.43682 -0.0102281 0)
(1.45083 -0.00919639 0)
(1.4643 -0.00833448 0)
(1.47755 -0.00753783 0)
(1.49032 -0.00695823 0)
(1.50289 -0.00638786 0)
(1.5152 -0.0060106 0)
(1.5274 -0.00554875 0)
(1.53949 -0.00521317 0)
(1.5515 -0.00470028 0)
(1.56319 -0.00426862 0)