/*--------------------------------*- C++ -*----------------------------------*\
| =========                 |                                                 |
| \\      /  F ield         | OpenFOAM: The Open Source CFD Toolbox           |
|  \\    /   O peration     | Version:  v2106                                 |
|   \\  /    A nd           | Website:  www.openfoam.com                      |
|    \\/     M anipulation  |                                                 |
\*---------------------------------------------------------------------------*/
FoamFile
{
    version     2.0;
    format      ascii;
    arch        "LSB;label=32;scalar=64";
    class       volScalarField;
    location    "1";
    object      Mo;
}
// * * * * * * * * * * * * * * * * * * * * * * * * * * * * * * * * * * * * * //

dimensions      [0 0 0 0 0 0 0];

internalField   nonuniform List<scalar> 
5250
(
3.01265
3.01265
3.01265
3.01265
3.01265
3.01265
3.01264
3.01256
3.01184
3.00648
2.95727
2.7856
2.17784
1.19573
0.348611
0.437838
0.405112
0.352096
0.305003
0.270699
0.225422
0.181891
0.134837
0.0881927
0.0356862
3.01265
3.01265
3.01265
3.01265
3.01265
3.01265
3.01264
3.01256
3.01186
3.00678
2.95891
2.79017
2.19073
1.21567
0.342525
0.436761
0.403893
0.350829
0.3048
0.272416
0.229805
0.188874
0.144933
0.102975
0.0646925
3.01265
3.01265
3.01265
3.01265
3.01265
3.01265
3.01264
3.01257
3.01191
3.00756
2.96237
2.80051
2.21856
1.26792
0.340972
0.438652
0.406184
0.354232
0.309496
0.281442
0.24307
0.204863
0.165191
0.129618
0.102462
3.01265
3.01265
3.01265
3.01265
3.01265
3.01265
3.01264
3.01259
3.012
3.0084
2.9672
2.81499
2.25399
1.32572
0.366365
0.448801
0.415611
0.364412
0.321139
0.295792
0.261091
0.227293
0.192855
0.162957
0.142388
3.01265
3.01265
3.01265
3.01265
3.01265
3.01265
3.01264
3.01261
3.01211
3.00909
2.97222
2.83039
2.29505
1.37396
0.427662
0.475469
0.43773
0.3808
0.336911
0.314815
0.285224
0.255512
0.225995
0.20118
0.187069
3.01265
3.01265
3.01265
3.01265
3.01265
3.01265
3.01264
3.01262
3.01217
3.00971
2.9765
2.84567
2.34244
1.41739
0.496282
0.511465
0.470325
0.40559
0.358169
0.339027
0.314205
0.2897
0.266313
0.246629
0.236606
3.01265
3.01265
3.01265
3.01265
3.01265
3.01265
3.01264
3.01262
3.0122
3.01032
2.98136
2.86394
2.39548
1.4678
0.558486
0.548892
0.506451
0.440922
0.387788
0.370111
0.349578
0.330076
0.311961
0.296359
0.296167
3.01265
3.01265
3.01265
3.01265
3.01265
3.01265
3.01264
3.01264
3.01225
3.01082
2.98637
2.88226
2.45537
1.52962
0.616043
0.58155
0.543456
0.48782
0.429107
0.407292
0.390635
0.377431
0.365458
0.361506
0.371011
3.01265
3.01265
3.01265
3.01265
3.01265
3.01265
3.01264
3.01264
3.01231
3.01119
2.99034
2.90179
2.52065
1.60699
0.68607
0.597192
0.582811
0.543625
0.487092
0.454608
0.440853
0.432228
0.429306
0.429355
0.469089
3.01265
3.01265
3.01265
3.01265
3.01265
3.01265
3.01264
3.01264
3.01236
3.01129
2.99639
2.9091
2.59834
1.703
0.794775
0.584289
0.602983
0.589611
0.555309
0.508605
0.497784
0.49121
0.50113
0.526285
0.64488
3.01265
3.01265
3.01265
3.01265
3.01265
3.01265
3.01265
3.01264
3.01249
3.01133
3.00215
2.92916
2.67811
1.8435
0.942739
0.561996
0.606281
0.608961
0.593511
0.561398
0.553244
0.559073
0.584105
0.662532
0.870051
3.01265
3.01265
3.01265
3.01265
3.01265
3.01265
3.01265
3.01264
3.01255
3.01165
3.00553
2.95039
2.76127
2.08492
1.14967
0.534469
0.599462
0.625789
0.620776
0.609602
0.605814
0.626896
0.667112
0.783848
0.991398
3.01265
3.01265
3.01265
3.01265
3.01265
3.01265
3.01265
3.01264
3.01259
3.01204
3.00831
2.96695
2.8169
2.26325
1.39259
0.567686
0.59413
0.623201
0.630805
0.646175
0.65582
0.685717
0.729134
0.835711
0.993817
3.01265
3.01265
3.01265
3.01265
3.01265
3.01265
3.01265
3.01264
3.01261
3.01224
3.00983
2.97854
2.85447
2.37957
1.53238
0.681039
0.628199
0.633154
0.640931
0.660303
0.687053
0.727811
0.776315
0.870716
0.991058
3.01265
3.01265
3.01265
3.01265
3.01265
3.01265
3.01265
3.01264
3.01263
3.01225
3.01103
2.98626
2.89582
2.49145
1.64448
0.830197
0.66733
0.65932
0.662622
0.68005
0.71098
0.754512
0.806154
0.886908
0.997361
3.01265
3.01265
3.01265
3.01265
3.01265
3.01265
3.01265
3.01264
3.01264
3.01239
3.01113
2.99779
2.91467
2.61502
1.7777
1.01691
0.705971
0.703207
0.702392
0.712241
0.738067
0.778497
0.828019
0.900983
1.00005
3.01265
3.01265
3.01265
3.01265
3.01265
3.01265
3.01265
3.01265
3.01264
3.01256
3.01166
3.00677
2.94453
2.74357
1.99412
1.27958
0.719836
0.742681
0.749487
0.755755
0.771044
0.804306
0.849337
0.914618
1.00065
3.01265
3.01265
3.01265
3.01265
3.01265
3.01265
3.01265
3.01265
3.01264
3.01262
3.01206
3.0091
2.97016
2.83567
2.31594
1.53565
0.819544
0.782637
0.785796
0.792055
0.805875
0.833625
0.873225
0.931049
1.00635
3.01265
3.01265
3.01265
3.01265
3.01265
3.01265
3.01265
3.01265
3.01264
3.01264
3.01221
3.0108
2.98617
2.88154
2.491
1.70819
1.00035
0.820932
0.820873
0.827459
0.841974
0.867163
0.901607
0.951895
1.01737
3.01265
3.01265
3.01265
3.01265
3.01265
3.01265
3.01265
3.01265
3.01265
3.01263
3.01247
3.01122
3.00121
2.92028
2.65728
1.87078
1.24978
0.852084
0.860349
0.867502
0.878427
0.898518
0.927805
0.970508
1.02849
3.01265
3.01265
3.01265
3.01265
3.01265
3.01265
3.01265
3.01265
3.01265
3.01263
3.01263
3.01173
3.00799
2.95309
2.81683
2.23628
1.52633
0.907893
0.891811
0.898092
0.908591
0.926081
0.95108
0.986301
1.03619
3.01265
3.01265
3.01265
3.01265
3.01265
3.01265
3.01265
3.01265
3.01265
3.01264
3.01263
3.01216
3.00995
2.98373
2.85639
2.47521
1.73625
1.07697
0.921822
0.920388
0.930452
0.947743
0.97153
1.0027
1.04503
3.01265
3.01265
3.01265
3.01265
3.01265
3.01265
3.01265
3.01265
3.01265
3.01265
3.01263
3.01252
3.01115
3.00731
2.90339
2.6764
1.90865
1.32644
0.95547
0.949661
0.959179
0.974344
0.995494
1.02204
1.05692
3.01265
3.01265
3.01265
3.01265
3.01265
3.01265
3.01265
3.01265
3.01265
3.01265
3.01263
3.01262
3.0118
3.00845
2.959
2.81692
2.25373
1.60096
1.02545
0.982204
0.985701
0.999053
1.01759
1.03988
1.06926
3.01265
3.01265
3.01265
3.01265
3.01265
3.01265
3.01265
3.01265
3.01265
3.01265
3.01264
3.0126
3.01226
3.0097
2.98725
2.8632
2.53858
1.83086
1.22529
1.01665
1.01218
1.02347
1.03819
1.05745
1.08213
3.01265
3.01265
3.01265
3.01265
3.01265
3.01265
3.01265
3.01265
3.01265
3.01265
3.01265
3.01262
3.01264
3.01093
3.00641
2.92488
2.7401
2.01796
1.54831
1.05322
1.03753
1.04645
1.05912
1.07651
1.0972
3.01265
3.01265
3.01265
3.01265
3.01265
3.01265
3.01265
3.01265
3.01265
3.01265
3.01265
3.01264
3.01258
3.01206
3.00833
2.9768
2.82895
2.41663
1.79148
1.21052
1.07317
1.06882
1.07967
1.09443
1.11192
3.01265
3.01265
3.01265
3.01265
3.01265
3.01265
3.01265
3.01265
3.01265
3.01265
3.01265
3.01265
3.0126
3.01266
3.01007
3.00463
2.8907
2.69541
1.99523
1.48763
1.1251
1.10025
1.10596
1.11583
1.12958
3.01265
3.01265
3.01265
3.01265
3.01265
3.01265
3.01265
3.01265
3.01265
3.01265
3.01265
3.01265
3.01264
3.01256
3.01187
3.0072
2.96734
2.8066
2.36355
1.76111
1.23085
1.13556
1.12639
1.1349
1.14634
3.01265
3.01265
3.01265
3.01265
3.01265
3.01265
3.01265
3.01265
3.01265
3.01265
3.01265
3.01265
3.01265
3.01259
3.01262
3.00936
3.00436
2.8669
2.67572
2.00101
1.48716
1.18951
1.15762
1.15734
1.16532
3.01265
3.01265
3.01265
3.01265
3.01265
3.01265
3.01265
3.01265
3.01265
3.01265
3.01265
3.01265
3.01265
3.01263
3.01254
3.01173
3.00641
2.95948
2.78842
2.30544
1.77701
1.27851
1.19026
1.17421
1.1798
3.01265
3.01265
3.01265
3.01265
3.01265
3.01265
3.01265
3.01265
3.01265
3.01265
3.01265
3.01265
3.01265
3.01264
3.01257
3.01255
3.00911
3.00449
2.86114
2.66353
2.02082
1.52845
1.24469
1.20527
1.19734
3.01265
3.01265
3.01265
3.01265
3.01265
3.01265
3.01265
3.01265
3.01265
3.01265
3.01265
3.01265
3.01265
3.01265
3.01263
3.01254
3.01169
3.00635
2.95799
2.79031
2.31548
1.8113
1.33189
1.23207
1.2111
3.01265
3.01265
3.01265
3.01265
3.01265
3.01265
3.01265
3.01265
3.01265
3.01265
3.01265
3.01265
3.01265
3.01265
3.01265
3.01261
3.01272
3.00949
3.00454
2.86682
2.6824
2.05521
1.59446
1.27533
1.23821
3.01265
3.01265
3.01265
3.01265
3.01265
3.01265
3.01265
3.01265
3.01265
3.01265
3.01265
3.01265
3.01265
3.01265
3.01265
3.01263
3.01257
3.01173
3.00695
2.96007
2.80614
2.38402
1.85998
1.38463
1.25656
3.01265
3.01265
3.01265
3.01265
3.01265
3.01265
3.01265
3.01265
3.01265
3.01265
3.01265
3.01265
3.01265
3.01265
3.01265
3.01265
3.01264
3.01293
3.0101
3.00643
2.87743
2.72613
2.09183
1.67057
1.28753
3.01265
3.01265
3.01265
3.01265
3.01265
3.01265
3.01265
3.01265
3.01265
3.01265
3.01265
3.01265
3.01265
3.01265
3.01265
3.01265
3.01264
3.01259
3.01181
3.0081
2.96597
2.82346
2.45951
1.91154
1.42616
3.01265
3.01265
3.01265
3.01265
3.01265
3.01265
3.01265
3.01265
3.01265
3.01265
3.01265
3.01265
3.01265
3.01265
3.01265
3.01265
3.01265
3.01262
3.01262
3.00994
3.00651
2.88723
2.75152
2.10324
1.73228
3.01265
3.01265
3.01265
3.01265
3.01265
3.01265
3.01265
3.01265
3.01265
3.01265
3.01265
3.01265
3.01265
3.01265
3.01265
3.01265
3.01265
3.01264
3.01257
3.0119
3.00797
2.96897
2.82639
2.45433
1.90718
3.01265
3.01265
3.01265
3.01265
3.01265
3.01265
3.01265
3.01265
3.01265
3.01265
3.01265
3.01265
3.01265
3.01265
3.01265
3.01265
3.01265
3.01265
3.01262
3.0128
3.01022
3.00655
2.89029
2.73755
2.06924
3.01265
3.01265
3.01265
3.01265
3.01265
3.01265
3.01265
3.01265
3.01265
3.01265
3.01265
3.01265
3.01265
3.01265
3.01265
3.01265
3.01265
3.01265
3.01264
3.01256
3.01189
3.00755
2.96826
2.81906
2.42379
3.01265
3.01265
3.01265
3.01265
3.01265
3.01265
3.01265
3.01265
3.01265
3.01265
3.01265
3.01265
3.01265
3.01265
3.01265
3.01265
3.01265
3.01265
3.01265
3.01259
3.01268
3.00951
3.00326
2.86527
2.71672
3.01265
3.01265
3.01265
3.01265
3.01265
3.01265
3.01265
3.01265
3.01265
3.01265
3.01265
3.01265
3.01265
3.01265
3.01265
3.01265
3.01265
3.01265
3.01265
3.01263
3.01262
3.01163
3.00718
2.96477
2.79871
3.01265
3.01265
3.01265
3.01265
3.01265
3.01265
3.01265
3.01265
3.01265
3.01265
3.01265
3.01265
3.01265
3.01265
3.01265
3.01265
3.01265
3.01265
3.01265
3.01264
3.01262
3.01253
3.00982
3.01054
2.84468
3.01265
3.01265
3.01265
3.01265
3.01265
3.01265
3.01265
3.01265
3.01265
3.01265
3.01265
3.01265
3.01265
3.01265
3.01265
3.01265
3.01265
3.01265
3.01265
3.01265
3.01262
3.01263
3.0111
3.00679
2.92969
3.01265
3.01265
3.01265
3.01265
3.01265
3.01265
3.01265
3.01265
3.01265
3.01265
3.01265
3.01265
3.01265
3.01265
3.01265
3.01265
3.01265
3.01265
3.01265
3.01265
3.01264
3.01259
3.01212
3.00885
2.97821
3.01265
3.01265
3.01265
3.01265
3.01265
3.01265
3.01265
3.01265
3.01265
3.01265
3.01265
3.01265
3.01265
3.01265
3.01265
3.01265
3.01265
3.01265
3.01265
3.01265
3.01264
3.01259
3.01254
3.01
3.00457
3.01265
3.01265
3.01265
3.01265
3.01265
3.01265
3.01265
3.01265
3.01265
3.01265
3.01265
3.01265
3.01265
3.01265
3.01265
3.01265
3.01265
3.01265
3.01265
3.01265
3.01265
3.01263
3.01262
3.0114
3.00751
3.01265
3.01265
3.01265
3.01265
3.01265
3.01265
3.01265
3.01265
3.01265
3.01265
3.01265
3.01265
3.01265
3.01265
3.01265
3.01265
3.01265
3.01265
3.01265
3.01265
3.01265
3.01264
3.01259
3.01197
3.00789
3.01265
3.01265
3.01265
3.01265
3.01265
3.01265
3.01265
3.01265
3.01265
3.01265
3.01265
3.01265
3.01265
3.01265
3.01265
3.01265
3.01265
3.01265
3.01265
3.01265
3.01265
3.01265
3.01256
3.01211
3.0068
1.21519
1.47073
0.986352
0.194295
0.146658
0.247546
0.314815
0.333858
0.345962
0.346003
0.345332
0.324997
0.291072
0.238818
0.180373
0.115176
0.0468359
0.0512427
0.119178
0.187861
0.251533
0.308159
0.358541
0.403633
0.443255
0.479685
0.51476
0.548976
0.582484
0.615342
0.647798
0.67996
0.71191
0.743589
0.775013
0.806205
0.836926
0.867039
0.896494
0.924942
0.95182
0.977214
1.00078
1.02233
1.04178
1.05951
1.07575
1.09053
1.10384
1.11558
1.12581
1.13447
1.14155
1.14718
1.15153
1.15484
1.15727
1.1589
1.15955
1.1592
1.15756
1.15271
1.14122
1.11529
1.05523
0.910047
0.592886
0.219508
0.0407267
0.00508671
0.000568399
6.23821e-05
6.83116e-06
7.47667e-07
8.18351e-08
8.95646e-09
9.80249e-10
1.07277e-10
1.17391e-11
1.28269e-12
1.37886e-13
1.22147e-14
1.23638e-15
3.72556e-15
3.95995e-15
2.79769e-15
2.12267e-15
2.29162e-15
1.11384e-15
2.28102e-15
2.43245e-15
3.60931e-15
2.89014e-15
2.00429e-15
2.35619e-15
4.3805e-16
8.9901e-16
3.71858e-15
4.81126e-15
3.93583e-15
1.20803
1.49093
1.30503
0.944594
0.713692
0.590577
0.447321
0.394645
0.325351
0.302082
0.303065
0.315942
0.348849
0.38837
0.42233
0.459838
0.49348
0.524964
0.550627
0.573254
0.598448
0.624233
0.648182
0.669484
0.688654
0.705485
0.721256
0.737237
0.754159
0.772345
0.791922
0.812965
0.835537
0.859453
0.884374
0.90946
0.933791
0.957146
0.979626
1.00154
1.02273
1.04227
1.05985
1.07533
1.08868
1.1001
1.10962
1.1176
1.12451
1.1304
1.13552
1.13999
1.14383
1.14708
1.14985
1.15215
1.1541
1.15567
1.15656
1.15645
1.1553
1.15116
1.14041
1.11512
1.0555
0.91056
0.593495
0.219858
0.0408156
0.00509848
0.000569668
6.25158e-05
6.84511e-06
7.49128e-07
8.19878e-08
8.97247e-09
9.81926e-10
1.07453e-10
1.17576e-11
1.28554e-12
1.38599e-13
1.15833e-14
1.54949e-15
3.08742e-15
3.32874e-15
1.96042e-15
3.62237e-15
1.35617e-15
2.27406e-15
3.14072e-15
4.0014e-15
2.87659e-15
1.80176e-15
2.93304e-15
2.7772e-15
7.22529e-16
3.48266e-15
2.96969e-15
1.13882e-15
1.63949e-15
1.17114
1.35158
1.44854
1.33256
1.21802
1.113
0.994817
0.932404
0.864098
0.837743
0.834659
0.84716
0.868304
0.878267
0.879528
0.877042
0.869444
0.858233
0.843966
0.839332
0.836538
0.838043
0.847332
0.856083
0.864434
0.873022
0.881162
0.889851
0.899306
0.909733
0.921271
0.934015
0.9481
0.963437
0.979842
0.996684
1.01324
1.02915
1.04427
1.05893
1.07325
1.08636
1.09759
1.10645
1.11283
1.11735
1.1212
1.1247
1.12795
1.13116
1.13436
1.1376
1.1409
1.14415
1.14726
1.15008
1.15258
1.15463
1.15594
1.15606
1.15511
1.15115
1.14045
1.11509
1.05537
0.910373
0.593377
0.219855
0.0408224
0.00510023
0.000569952
6.2556e-05
6.8504e-06
7.49797e-07
8.207e-08
8.98237e-09
9.831e-10
1.0759e-10
1.17743e-11
1.28711e-12
1.37845e-13
1.14795e-14
1.67638e-15
3.22026e-15
2.94431e-15
2.44511e-15
2.84017e-15
2.76453e-15
2.18296e-15
1.41147e-15
5.12931e-16
1.87458e-15
2.6097e-15
2.03601e-15
2.04106e-15
7.74745e-16
9.05266e-16
2.98463e-15
3.59874e-15
2.39133e-15
1.16335
1.28918
1.46154
1.46533
1.39977
1.34411
1.29233
1.26119
1.23292
1.20739
1.19697
1.19026
1.18194
1.16767
1.14164
1.10925
1.07119
1.03534
1.00608
0.987052
0.968738
0.954289
0.948745
0.949415
0.950729
0.952307
0.955794
0.961516
0.968931
0.977662
0.987506
0.997981
1.0092
1.02118
1.0335
1.04568
1.05779
1.06963
1.08117
1.0924
1.10288
1.11205
1.12009
1.12681
1.13167
1.13526
1.13846
1.1411
1.14338
1.14524
1.14692
1.14854
1.15014
1.15176
1.15343
1.1551
1.15659
1.15781
1.15842
1.15812
1.15666
1.15213
1.14103
1.1155
1.05584
0.911125
0.594534
0.220616
0.0410201
0.00512696
0.000572898
6.28736e-05
6.88436e-06
7.53443e-07
8.24612e-08
9.02449e-09
9.87638e-10
1.0808e-10
1.18259e-11
1.29252e-12
1.3954e-13
1.3013e-14
1.63645e-15
2.43726e-15
3.08868e-15
1.47378e-15
3.70239e-15
2.46677e-15
2.5097e-15
2.99074e-15
2.37796e-15
1.57088e-15
1.60309e-15
2.61779e-15
1.96865e-15
2.32713e-15
1.88672e-15
6.21903e-16
2.80338e-15
3.46208e-15
1.14333
1.27414
1.38411
1.48122
1.45902
1.4302
1.3982
1.37517
1.36076
1.34814
1.33773
1.32754
1.30978
1.28224
1.2451
1.20021
1.1528
1.10653
1.0767
1.05353
1.03322
1.01861
1.00349
0.997788
0.995056
0.995105
0.997305
1.00178
1.00813
1.01604
1.02518
1.03499
1.04531
1.05596
1.06632
1.07635
1.0864
1.09629
1.10536
1.11355
1.12112
1.12785
1.13298
1.13685
1.13977
1.1417
1.14332
1.14479
1.14592
1.14695
1.14798
1.14898
1.15005
1.15122
1.15248
1.15383
1.15522
1.15641
1.15703
1.15675
1.15534
1.15091
1.13995
1.11458
1.05511
0.910587
0.594278
0.22057
0.0410219
0.00512868
0.000573253
6.29293e-05
6.89218e-06
7.5448e-07
8.25934e-08
9.04092e-09
9.8964e-10
1.0832e-10
1.18543e-11
1.29546e-12
1.3879e-13
1.2608e-14
1.87348e-15
4.64592e-15
2.02046e-15
1.33309e-15
3.66247e-15
1.91311e-15
2.39032e-15
2.17309e-15
1.54418e-15
2.23648e-15
2.28926e-15
2.10421e-15
9.01868e-16
6.68222e-16
2.04122e-15
2.61732e-15
1.63984e-15
3.47923e-15
1.11969
1.25065
1.35144
1.44443
1.43961
1.43142
1.41984
1.40652
1.39575
1.38256
1.36711
1.35116
1.32892
1.30014
1.26473
1.2229
1.1764
1.13418
1.10469
1.08588
1.06888
1.05368
1.04167
1.03108
1.02554
1.02539
1.02734
1.03123
1.03665
1.0434
1.05129
1.06007
1.06955
1.07885
1.08826
1.09767
1.10649
1.1146
1.12141
1.12795
1.13457
1.13953
1.14273
1.14531
1.14748
1.14917
1.1509
1.15259
1.15406
1.15523
1.15626
1.15698
1.15757
1.15813
1.15869
1.15927
1.15986
1.16032
1.16031
1.15961
1.15759
1.15259
1.14125
1.11572
1.05631
0.912133
0.596341
0.221911
0.0413708
0.00517591
0.00057846
6.3491e-05
6.95222e-06
7.60929e-07
8.32854e-08
9.11547e-09
9.97674e-10
1.09188e-10
1.19478e-11
1.30565e-12
1.4095e-13
1.24656e-14
1.41447e-15
2.95851e-15
4.42101e-15
1.13407e-15
3.66608e-15
2.3864e-15
3.03315e-15
2.70897e-15
2.6566e-15
1.80466e-15
2.85361e-15
2.33372e-15
5.64688e-16
2.94361e-16
9.01868e-16
1.6674e-15
2.04853e-15
6.71073e-16
1.10359
1.22402
1.33363
1.38037
1.39782
1.39863
1.39371
1.38499
1.37401
1.35932
1.34423
1.3304
1.31295
1.29036
1.26173
1.22771
1.19027
1.15311
1.1223
1.10218
1.08837
1.07389
1.06231
1.04935
1.04077
1.03955
1.04119
1.04464
1.0491
1.05492
1.06209
1.07038
1.07944
1.08911
1.09952
1.10911
1.11792
1.12531
1.13151
1.13756
1.14218
1.14515
1.14809
1.15113
1.15223
1.15226
1.15316
1.15447
1.15563
1.15658
1.15711
1.1574
1.15761
1.1578
1.15804
1.15835
1.15873
1.15904
1.15896
1.15824
1.15619
1.15123
1.14
1.11461
1.05535
0.911372
0.595977
0.221867
0.0413807
0.00517956
0.000579123
6.359e-05
6.96575e-06
7.62692e-07
8.35074e-08
9.14281e-09
1.00098e-09
1.09583e-10
1.1994e-11
1.31189e-12
1.41392e-13
1.26769e-14
2.1929e-15
3.25237e-15
2.54546e-15
1.58895e-15
1.46156e-15
2.93027e-15
4.14293e-15
2.04934e-15
1.81351e-15
2.82846e-15
1.42656e-15
3.0589e-15
6.19496e-16
2.86948e-15
8.32678e-16
9.94311e-16
2.78294e-15
2.92096e-15
1.09811
1.19859
1.29838
1.3477
1.37555
1.38168
1.37753
1.36675
1.34988
1.33331
1.32048
1.30682
1.29138
1.2728
1.24791
1.22458
1.19525
1.15945
1.12793
1.10742
1.09491
1.08439
1.07573
1.06498
1.05662
1.05377
1.05422
1.05593
1.05863
1.06316
1.0694
1.07703
1.08574
1.0955
1.1062
1.11693
1.12677
1.13469
1.14096
1.14565
1.14865
1.15184
1.15534
1.15732
1.15739
1.15762
1.15824
1.15953
1.16088
1.1622
1.16304
1.16362
1.16392
1.164
1.16391
1.16372
1.16349
1.1632
1.16272
1.16151
1.1589
1.15347
1.14189
1.11627
1.05703
0.913482
0.598755
0.223696
0.0418583
0.0052445
0.000586294
6.43643e-05
7.04862e-06
7.71599e-07
8.44639e-08
9.24589e-09
1.01209e-09
1.10782e-10
1.21241e-11
1.32593e-12
1.43291e-13
1.27475e-14
1.08904e-15
2.255e-15
2.27665e-15
1.55916e-15
3.67451e-15
2.13895e-15
3.32705e-15
2.42168e-15
3.26541e-15
1.62162e-15
2.69521e-15
1.26878e-15
2.17923e-15
1.26268e-15
1.03721e-15
8.96329e-16
1.84396e-15
4.23504e-15
1.0947
1.18667
1.27286
1.32485
1.33815
1.34907
1.34974
1.3382
1.31817
1.30654
1.29458
1.28025
1.26679
1.25317
1.23345
1.21202
1.18757
1.15801
1.13134
1.11108
1.10028
1.09429
1.08899
1.08167
1.07395
1.07013
1.06894
1.06914
1.07082
1.07448
1.07979
1.08651
1.09448
1.10371
1.1141
1.125
1.13539
1.14306
1.14856
1.15214
1.1548
1.15745
1.15919
1.15995
1.16045
1.16068
1.16065
1.16107
1.16229
1.16343
1.16414
1.16447
1.16451
1.16433
1.164
1.1635
1.16294
1.16244
1.16177
1.16042
1.15773
1.15227
1.14069
1.11512
1.05598
0.912665
0.598447
0.223742
0.0418973
0.00525274
0.000587535
6.45332e-05
7.07038e-06
7.74325e-07
8.47971e-08
9.286e-09
1.01686e-09
1.11343e-10
1.21885e-11
1.3336e-12
1.44713e-13
1.42292e-14
1.85209e-15
3.3016e-15
1.72951e-15
2.16621e-15
2.66225e-15
1.28896e-15
3.26266e-15
2.19876e-15
2.07785e-15
2.1573e-15
9.60428e-16
9.50613e-16
1.14731e-15
9.27725e-16
9.17288e-16
1.86282e-15
2.16605e-15
5.40814e-16
1.09504
1.17547
1.25205
1.30649
1.31298
1.31656
1.31628
1.30694
1.29548
1.28101
1.26544
1.25216
1.23999
1.22715
1.21173
1.1941
1.17924
1.15874
1.13757
1.11807
1.10877
1.10356
1.09984
1.09495
1.08895
1.08457
1.08245
1.08247
1.08405
1.08707
1.09127
1.09671
1.10354
1.11185
1.12141
1.13169
1.14186
1.14952
1.15489
1.1583
1.16069
1.16261
1.16442
1.16576
1.16591
1.16554
1.16496
1.16506
1.16601
1.16756
1.16858
1.16911
1.1693
1.16922
1.16894
1.16834
1.16751
1.16657
1.16548
1.1637
1.16061
1.15475
1.14283
1.11703
1.05792
0.915121
0.601694
0.225902
0.0424645
0.00533009
0.000596078
6.54553e-05
7.16897e-06
7.84909e-07
8.59317e-08
9.40801e-09
1.02997e-09
1.12755e-10
1.23412e-11
1.3491e-12
1.46866e-13
1.29132e-14
2.45148e-15
2.13673e-15
1.57441e-15
1.73071e-15
3.70761e-15
1.64993e-15
3.46728e-15
1.50305e-15
3.06391e-15
1.56537e-15
1.29615e-15
9.6663e-16
1.58947e-15
1.26268e-15
1.84468e-16
5.09685e-16
9.47465e-16
1.37755e-15
1.09418
1.16483
1.23257
1.28547
1.29499
1.29534
1.29224
1.28298
1.27148
1.25386
1.234
1.22101
1.21052
1.20075
1.19143
1.18014
1.16923
1.155
1.14078
1.12674
1.11783
1.11281
1.10922
1.10473
1.10055
1.0962
1.09381
1.09402
1.0957
1.09812
1.10143
1.10604
1.11199
1.11919
1.12776
1.13761
1.14772
1.15535
1.16023
1.1633
1.16547
1.16762
1.16941
1.16933
1.16915
1.1689
1.16794
1.16727
1.16773
1.16889
1.1697
1.17018
1.17021
1.16999
1.16951
1.16868
1.16762
1.16645
1.16513
1.16315
1.15988
1.15388
1.14186
1.11603
1.05699
0.914421
0.601566
0.226095
0.0425452
0.00534434
0.00059801
6.57011e-05
7.19915e-06
7.88552e-07
8.63639e-08
9.45875e-09
1.03587e-09
1.13436e-10
1.24189e-11
1.35915e-12
1.46078e-13
1.2581e-14
4.10062e-16
1.90968e-15
2.3576e-15
2.2918e-15
1.95376e-15
9.74838e-16
2.73331e-15
3.08742e-15
3.13596e-15
1.90267e-15
8.94939e-16
2.28571e-15
8.1982e-16
1.91605e-15
6.80285e-16
1.91675e-15
2.91883e-15
2.90529e-15
1.09566
1.15501
1.21169
1.26471
1.26964
1.27321
1.27204
1.26633
1.25303
1.23389
1.21193
1.19595
1.18725
1.17856
1.16943
1.16224
1.15382
1.14736
1.13969
1.13213
1.12656
1.12279
1.11868
1.11494
1.11025
1.10571
1.10407
1.10422
1.10524
1.10697
1.10998
1.11392
1.11881
1.125
1.13297
1.14262
1.15287
1.16052
1.16593
1.16926
1.17182
1.17328
1.17348
1.17364
1.17345
1.17166
1.17074
1.17114
1.17173
1.17178
1.17251
1.17339
1.17365
1.17356
1.17327
1.17265
1.17165
1.17035
1.16875
1.1664
1.16274
1.15638
1.14405
1.11801
1.05901
0.916986
0.604977
0.228385
0.0431504
0.00542696
0.000607117
6.66811e-05
7.30353e-06
7.9971e-07
8.75541e-08
9.586e-09
1.04945e-09
1.1489e-10
1.25752e-11
1.37418e-12
1.50438e-13
1.33353e-14
2.19025e-16
1.08255e-15
3.4154e-15
1.64671e-15
3.60805e-15
2.18311e-15
4.20715e-15
8.35066e-16
2.48471e-15
3.74518e-16
2.25437e-15
8.89824e-16
1.77871e-15
8.11783e-16
6.69959e-16
9.25575e-16
3.17708e-15
4.01698e-15
1.09941
1.14945
1.19681
1.24732
1.24866
1.25323
1.25458
1.25117
1.23905
1.22016
1.19595
1.17474
1.16831
1.1634
1.15713
1.15147
1.14663
1.14307
1.14014
1.13596
1.13363
1.13192
1.12923
1.12557
1.12104
1.1157
1.11356
1.11308
1.11362
1.11557
1.11795
1.12046
1.12454
1.13086
1.13905
1.14834
1.15741
1.16511
1.1705
1.17338
1.17531
1.17587
1.17668
1.17682
1.17477
1.17324
1.17331
1.17356
1.17296
1.17279
1.17374
1.17459
1.17487
1.17475
1.1744
1.17362
1.17241
1.17086
1.16899
1.16639
1.1625
1.15594
1.14345
1.1173
1.05831
0.9165
0.605067
0.22872
0.0432688
0.00544614
0.000609565
6.6978e-05
7.33862e-06
8.03809e-07
8.80262e-08
9.63994e-09
1.05556e-09
1.15575e-10
1.2651e-11
1.38416e-12
1.49376e-13
1.31321e-14
9.98808e-16
2.9167e-15
1.67296e-15
4.24443e-15
2.23035e-15
1.80929e-15
3.8185e-15
2.49697e-15
3.69916e-15
1.8058e-15
1.66804e-15
1.03432e-15
5.19363e-16
1.44529e-15
1.13026e-15
1.95563e-15
3.55185e-15
1.86001e-15
1.10574
1.14524
1.18613
1.23178
1.23533
1.23875
1.24031
1.23582
1.22544
1.20949
1.18617
1.16004
1.15708
1.15284
1.14893
1.14427
1.14374
1.14368
1.14219
1.14052
1.14154
1.14126
1.13963
1.1368
1.13283
1.12782
1.1233
1.12217
1.12284
1.12358
1.12455
1.1267
1.13106
1.1369
1.14345
1.15237
1.1618
1.16985
1.17463
1.17763
1.17925
1.18046
1.18132
1.17988
1.17831
1.17785
1.17744
1.17598
1.17522
1.17578
1.17678
1.1771
1.17735
1.17734
1.1771
1.1765
1.17544
1.17395
1.17205
1.16928
1.16515
1.15833
1.14559
1.11925
1.06028
0.918975
0.608347
0.230917
0.0438638
0.0055263
0.000618366
6.79136e-05
7.43731e-06
8.14239e-07
8.91253e-08
9.75584e-09
1.06774e-09
1.16857e-10
1.27868e-11
1.39766e-12
1.51368e-13
1.43223e-14
1.01856e-15
3.55988e-15
2.90901e-15
1.80599e-15
9.70059e-16
1.9396e-15
3.26167e-15
2.34563e-15
3.01525e-15
1.09422e-15
1.42656e-15
1.5342e-15
1.29673e-15
1.74408e-15
5.41887e-16
2.90972e-15
1.43607e-15
2.40545e-15
1.11157
1.14583
1.17895
1.22149
1.22613
1.22554
1.22697
1.22304
1.21313
1.19928
1.18048
1.15803
1.14991
1.14427
1.14026
1.1403
1.14565
1.14854
1.14931
1.14913
1.14881
1.14942
1.14833
1.1462
1.14285
1.13828
1.1341
1.13205
1.13071
1.13
1.13145
1.13424
1.13782
1.14226
1.14862
1.15748
1.16728
1.17428
1.1788
1.18173
1.1829
1.18398
1.18341
1.18221
1.18139
1.18071
1.1787
1.17735
1.17736
1.17793
1.17773
1.17802
1.17851
1.17845
1.1782
1.1776
1.17652
1.17497
1.17289
1.16986
1.16545
1.15837
1.1454
1.11891
1.05988
0.918723
0.608593
0.231319
0.0439966
0.00554662
0.000620845
6.82013e-05
7.46999e-06
8.17907e-07
8.95317e-08
9.8004e-09
1.07257e-09
1.17373e-10
1.28411e-11
1.40283e-12
1.51308e-13
1.51815e-14
1.44506e-15
3.01718e-15
2.43828e-15
3.2973e-15
1.67331e-15
2.18133e-15
1.60278e-15
1.62724e-15
4.32714e-15
1.28716e-15
1.60945e-15
5.33863e-16
1.50746e-15
5.47373e-16
1.93107e-15
2.62179e-15
3.32884e-15
1.97409e-15
1.12057
1.14875
1.17538
1.21334
1.21759
1.21775
1.21899
1.21345
1.20438
1.19138
1.17777
1.15961
1.14335
1.14319
1.14331
1.14377
1.14786
1.15528
1.15979
1.16039
1.15965
1.15821
1.15698
1.15469
1.1515
1.14727
1.14303
1.14052
1.13804
1.13643
1.13811
1.14033
1.14346
1.148
1.15457
1.16273
1.17212
1.17838
1.18286
1.18529
1.18674
1.18771
1.18742
1.18659
1.18578
1.18384
1.18173
1.18074
1.18029
1.17954
1.17931
1.18002
1.1806
1.18057
1.18039
1.17991
1.17892
1.17744
1.17537
1.17228
1.16775
1.16051
1.14737
1.12073
1.06169
0.920928
0.611444
0.233221
0.0445105
0.00561511
0.00062826
6.89739e-05
7.54981e-06
8.26123e-07
9.03726e-08
9.88606e-09
1.08123e-09
1.18241e-10
1.29278e-11
1.41325e-12
1.52211e-13
1.40312e-14
8.41009e-16
4.73347e-15
2.01795e-15
1.58476e-15
1.2158e-15
2.27577e-15
6.1249e-16
3.01878e-16
3.19155e-15
2.11518e-15
3.19129e-15
1.67043e-15
2.32038e-15
2.07813e-15
1.74955e-15
2.3736e-15
2.77146e-15
3.00837e-15
1.13166
1.15472
1.17552
1.20378
1.21319
1.21457
1.21312
1.20847
1.20242
1.19415
1.17867
1.15471
1.138
1.14546
1.14632
1.1492
1.15412
1.16422
1.17259
1.17519
1.17435
1.17147
1.16675
1.16264
1.15939
1.15504
1.15079
1.14772
1.14463
1.14348
1.14398
1.14537
1.14914
1.15414
1.16023
1.16791
1.17664
1.18261
1.18659
1.18861
1.19015
1.19051
1.19019
1.18976
1.18798
1.18521
1.18315
1.18182
1.18063
1.1802
1.18106
1.18205
1.18169
1.18154
1.18129
1.18081
1.1799
1.17848
1.17639
1.1732
1.16847
1.16101
1.14763
1.12078
1.06161
0.920868
0.61169
0.233552
0.0446134
0.00562999
0.000629963
6.91575e-05
7.56905e-06
8.28085e-07
9.05662e-08
9.90435e-09
1.08285e-09
1.1837e-10
1.2935e-11
1.41232e-12
1.51311e-13
1.45216e-14
1.23126e-15
3.19794e-15
1.48164e-15
1.87033e-15
3.03175e-15
3.6441e-16
2.15811e-15
1.41053e-15
1.81218e-15
2.43426e-15
2.11145e-15
2.50135e-15
1.3735e-15
2.01128e-15
2.36884e-15
9.55577e-16
4.22568e-15
1.76372e-15
1.14587
1.16411
1.1789
1.19639
1.21213
1.21211
1.20766
1.20494
1.20376
1.194
1.17371
1.14983
1.13569
1.14336
1.15061
1.15524
1.1642
1.17599
1.18652
1.191
1.19012
1.18538
1.17942
1.17201
1.16752
1.1624
1.15786
1.15393
1.15145
1.15006
1.14937
1.14961
1.15316
1.15786
1.16442
1.17285
1.18059
1.18699
1.19069
1.19257
1.19344
1.19353
1.19364
1.19309
1.19083
1.18847
1.18602
1.18416
1.18336
1.18353
1.18352
1.18296
1.18286
1.18306
1.18285
1.18241
1.18162
1.18034
1.17834
1.17518
1.17041
1.16286
1.14936
1.12239
1.06317
0.922647
0.613834
0.234936
0.0449776
0.00567697
0.00063483
6.96377e-05
7.61546e-06
8.32476e-07
9.09695e-08
9.93985e-09
1.08576e-09
1.18579e-10
1.29447e-11
1.41122e-12
1.50921e-13
1.42291e-14
9.68432e-16
2.46014e-15
3.21644e-15
1.32007e-15
2.75741e-15
1.55974e-15
2.1912e-15
1.78198e-15
1.93008e-15
3.10946e-15
2.23697e-15
4.08464e-15
3.66872e-15
2.53324e-15
3.40387e-15
3.1046e-15
3.82276e-15
5.52115e-15
1.16017
1.17389
1.18579
1.1992
1.21322
1.21031
1.20844
1.208
1.20456
1.18927
1.16981
1.15176
1.13947
1.14489
1.15613
1.16282
1.17291
1.18531
1.19699
1.20362
1.20417
1.19933
1.19239
1.18418
1.17566
1.16981
1.16479
1.1607
1.15766
1.1553
1.15441
1.15498
1.15727
1.16169
1.16836
1.17685
1.18561
1.19144
1.19516
1.19687
1.19713
1.19705
1.19643
1.19486
1.19265
1.19004
1.18761
1.18583
1.18505
1.1845
1.18383
1.18356
1.18348
1.18371
1.18355
1.18321
1.18253
1.18134
1.17936
1.17619
1.17134
1.16365
1.14995
1.12277
1.06334
0.922665
0.613844
0.234996
0.0449897
0.00567748
0.000634694
6.95965e-05
7.60758e-06
8.31192e-07
9.07775e-08
9.91256e-09
1.08203e-09
1.1808e-10
1.28806e-11
1.40291e-12
1.50007e-13
1.44398e-14
1.19375e-15
2.0228e-15
8.57137e-16
2.87321e-15
2.34223e-15
1.67984e-15
2.22655e-15
5.21278e-16
1.82514e-15
6.15329e-16
4.48164e-16
1.38218e-15
1.99137e-15
1.15704e-15
8.00043e-16
1.79196e-15
1.48695e-15
1.88584e-15
1.17663
1.18622
1.19574
1.2045
1.21518
1.21359
1.21291
1.20941
1.2005
1.18468
1.16847
1.15663
1.15008
1.15238
1.16386
1.17355
1.17846
1.18869
1.20209
1.21317
1.21595
1.21238
1.20558
1.19632
1.18609
1.17754
1.17163
1.16738
1.16343
1.16087
1.15979
1.15957
1.16083
1.16545
1.17216
1.1802
1.18888
1.19514
1.19842
1.19994
1.20022
1.20031
1.19933
1.19772
1.19509
1.19216
1.19012
1.18833
1.18704
1.18608
1.18548
1.18502
1.1849
1.1851
1.18476
1.18437
1.18368
1.1826
1.18076
1.17771
1.17293
1.16522
1.15145
1.12415
1.0646
0.923885
0.615017
0.235646
0.0451382
0.00569342
0.000635907
6.96611e-05
7.60694e-06
8.30257e-07
9.05786e-08
9.87994e-09
1.07724e-09
1.17421e-10
1.27932e-11
1.39117e-12
1.49342e-13
1.52219e-14
2.24478e-15
4.22471e-15
3.11991e-15
1.44488e-15
4.03173e-15
1.81259e-15
2.86754e-15
2.22054e-15
4.80592e-15
1.66296e-15
3.71916e-15
1.54418e-15
3.258e-15
3.40621e-15
2.41162e-15
3.74164e-15
3.47837e-15
5.02074e-15
1.18764
1.19721
1.20484
1.21016
1.21785
1.21735
1.21559
1.20816
1.198
1.18791
1.1747
1.1628
1.15822
1.15635
1.16292
1.17665
1.18494
1.19416
1.20752
1.2199
1.22422
1.2219
1.2155
1.20646
1.19575
1.18534
1.17852
1.17311
1.16944
1.16646
1.16451
1.16498
1.16655
1.1695
1.17624
1.18463
1.19256
1.19855
1.20196
1.20336
1.20359
1.20325
1.20227
1.20016
1.19783
1.19485
1.19156
1.18921
1.1877
1.18687
1.186
1.18538
1.1857
1.1858
1.18531
1.18496
1.1844
1.1834
1.18162
1.17865
1.17389
1.16614
1.15224
1.12474