/*--------------------------------*- C++ -*----------------------------------*\
| =========                 |                                                 |
| \\      /  F ield         | OpenFOAM: The Open Source CFD Toolbox           |
|  \\    /   O peration     | Version:  v2106                                 |
|   \\  /    A nd           | Website:  www.openfoam.com                      |
|    \\/     M anipulation  |                                                 |
\*---------------------------------------------------------------------------*/
FoamFile
{
    version     2.0;
    format      ascii;
    arch        "LSB;label=32;scalar=64";
    class       volScalarField;
    location    "1";
    object      p;
}
// * * * * * * * * * * * * * * * * * * * * * * * * * * * * * * * * * * * * * //

dimensions      [1 -1 -2 0 0 0 0];

internalField   nonuniform List<scalar> 
5250
(
1
1
1
1
1
1
1.00001
1.00005
1.00042
1.00364
1.02739
1.25305
2.28594
5.73711
11.1155
9.8659
10.0593
10.5409
10.8277
10.9503
11.1073
11.2484
11.3501
11.4578
11.5706
1
1
1
1
1
1
1.00001
1.00005
1.0004
1.00357
1.02625
1.24541
2.26053
5.69179
11.21
9.88914
10.0743
10.5521
10.8321
10.9496
11.1033
11.2427
11.3419
11.4489
11.5616
1
1
1
1
1
1
1.00001
1.00005
1.00034
1.00333
1.02405
1.22916
2.2019
5.56575
11.3235
9.91565
10.0861
10.5476
10.8211
10.9221
11.063
11.1956
11.2899
11.392
11.5025
1
1
1
1
1
1
1
1.00004
1.00026
1.00282
1.02108
1.20783
2.12453
5.37569
11.3251
9.96054
10.105
10.5445
10.7975
10.8826
11.0116
11.141
11.2234
11.32
11.4255
1
1
1
1
1
1
1
1.00003
1.0002
1.00236
1.01785
1.18544
2.0447
5.12535
11.0543
9.98457
10.0864
10.5173
10.7619
10.8297
10.9428
11.0486
11.1227
11.2084
11.3103
1
1
1
1
1
1
1
1.00003
1.00018
1.00219
1.01528
1.16341
1.9506
4.83737
10.5878
9.9671
10.0451
10.4745
10.7125
10.7687
10.8539
10.9546
10.9985
11.0696
11.1405
1
1
1
1
1
1
1
1.00003
1.00013
1.00195
1.01286
1.13963
1.83966
4.49374
10.0601
9.89149
9.97156
10.3753
10.6151
10.6705
10.7355
10.7851
10.8115
10.854
10.921
1
1
1
1
1
1
1
1.00002
1.0001
1.00163
1.01054
1.11701
1.72908
4.1144
9.48437
9.79803
9.87013
10.223
10.474
10.5451
10.5846
10.6266
10.5845
10.6179
10.5468
1
1
1
1
1
1
1
1.00002
1.00008
1.00137
1.00854
1.09798
1.62228
3.71691
8.79764
9.75886
9.75954
10.0383
10.2803
10.3852
10.3813
10.3319
10.2531
10.116
10.0155
1
1
1
1
1
1
1
1.00002
1.00007
1.0011
1.00806
1.07232
1.50928
3.30669
8.00113
9.77375
9.62269
9.78336
10.0379
10.1581
10.1162
10.0417
9.82928
9.79208
8.9965
1
1
1
1
1
1
1
1.00001
1.00009
1.0007
1.00611
1.04814
1.3962
2.87289
7.06677
9.78921
9.52363
9.52124
9.7098
9.91908
9.76
9.66048
9.18716
8.77834
6.47557
1
1
1
1
1
1
1
1.00001
1.00006
1.00048
1.00453
1.03304
1.28896
2.41461
6.12749
9.83717
9.34306
9.3266
9.43473
9.58454
9.44743
9.20727
8.59099
7.90607
5.89647
1
1
1
1
1
1
1
1
1.00003
1.00028
1.00274
1.02101
1.20985
2.13049
5.3071
9.81885
9.16491
9.18494
9.25661
9.28875
9.14885
8.81821
8.19755
7.50263
5.97104
1
1
1
1
1
1
1
1
1.00002
1.00017
1.00187
1.01424
1.15424
1.9008
4.60432
9.25316
9.17702
9.08188
9.11958
9.0899
8.90159
8.51524
7.93017
7.26236
6.03437
1
1
1
1
1
1
1
1
1.00002
1.0001
1.00167
1.00942
1.11283
1.68006
3.90248
8.29161
9.12903
8.93567
8.89828
8.83956
8.64245
8.26805
7.7138
7.11084
6.04286
1
1
1
1
1
1
1
1
1.00002
1.00008
1.00097
1.00786
1.06871
1.47848
3.19451
7.15957
9.03998
8.79885
8.67767
8.56142
8.37753
8.04542
7.53797
6.97759
6.07083
1
1
1
1
1
1
1
1
1.00001
1.00006
1.00038
1.00464
1.03106
1.30603
2.53191
5.97967
8.91033
8.59049
8.45705
8.34922
8.15574
7.85155
7.38069
6.86803
6.09997
1
1
1
1
1
1
1
1
1
1.00003
1.00023
1.00265
1.01887
1.19939
2.04071
4.85742
8.51026
8.51102
8.33273
8.2313
8.02287
7.71523
7.26452
6.77899
6.10918
1
1
1
1
1
1
1
1
1
1.00003
1.00011
1.00175
1.0111
1.1165
1.72183
3.9429
7.64123
8.56572
8.31
8.12642
7.8996
7.60012
7.17336
6.7101
6.12859
1
1
1
1
1
1
1
1
1
1.00001
1.0001
1.00084
1.00658
1.04888
1.4506
3.0633
6.40389
8.43012
8.1718
7.93476
7.71554
7.44984
7.08331
6.64955
6.14814
1
1
1
1
1
1
1
1
1
0.999999
1.00006
1.0003
1.00383
1.02522
1.27331
2.2504
5.09284
8.07338
8.00655
7.80436
7.59789
7.34985
7.01857
6.61212
6.15655
1
1
1
1
1
1
1
1
1
1
1.00003
1.00017
1.00205
1.0153
1.13373
1.81509
4.02732
7.31771
8.03781
7.81436
7.55946
7.28944
6.96359
6.58056
6.16028
1
1
1
1
1
1
1
1
1
1
1.00001
1.00009
1.00054
1.0071
1.02879
1.46248
3.0897
6.19664
7.9986
7.76473
7.49609
7.21583
6.9047
6.55399
6.17287
1
1
1
1
1
1
1
1
1
1
1
1.00005
1.00028
1.00362
1.02309
1.2421
2.21691
4.91635
7.60565
7.66592
7.42626
7.14209
6.84709
6.52681
6.18037
1
1
1
1
1
1
1
1
1
1
1
1.00003
1.00021
1.00181
1.01391
1.11953
1.76158
3.75
6.70914
7.68978
7.42832
7.13609
6.84277
6.53238
6.2046
1
1
1
1
1
1
1
1
1
1
1
1
1.00012
1.00034
1.00656
1.03939
1.39824
2.75447
5.49262
7.53922
7.37879
7.124
6.84595
6.54339
6.22937
1
1
1
1
1
1
1
1
1
1
1
1.00001
1.00004
1.00033
1.00279
1.02085
1.17114
1.97449
4.18658
6.87317
7.40415
7.14631
6.86612
6.56862
6.27136
1
1
1
1
1
1
1
1
1
1
1
1
1
1.00018
1.00045
1.00978
1.05401
1.5525
3.1091
5.75386
7.33685
7.15107
6.89195
6.60885
6.32503
1
1
1
1
1
1
1
1
1
1
1
1
1.00001
1.00006
1.00044
1.00367
1.02623
1.21507
2.12566
4.45677
6.82009
7.14697
6.90839
6.65488
6.37832
1
1
1
1
1
1
1
1
1
1
1
1
1
1.00002
1.00025
1.00039
1.01222
1.06208
1.65913
3.28414
5.80698
7.12386
6.956
6.7207
6.46404
1
1
1
1
1
1
1
1
1
1
1
1
1
1.00001
1.00007
1.00052
1.00439
1.03045
1.25376
2.26672
4.53937
6.68544
6.97633
6.76869
6.5463
1
1
1
1
1
1
1
1
1
1
1
1
1
1
1.00005
1.00029
1.00014
1.01292
1.06523
1.69167
3.31613
5.74949
6.96268
6.85665
6.62088
1
1
1
1
1
1
1
1
1
1
1
1
1
1
1.00001
1.00008
1.00054
1.00458
1.03106
1.26231
2.27575
4.46398
6.50632
6.90594
6.70658
1
1
1
1
1
1
1
1
1
1
1
1
1
1
1
1.00002
1.00016
0.999742
1.01257
1.06459
1.6731
3.21294
5.5546
6.83913
6.8155
1
1
1
1
1
1
1
1
1
1
1
1
1
1
1
1.00001
1.00007
1.00047
1.00427
1.02882
1.2529
2.20098
4.31319
6.35705
6.92756
1
1
1
1
1
1
1
1
1
1
1
1
1
1
1
1
1
1.00001
0.998814
1.01057
1.05505
1.61344
3.08527
5.37972
6.82916
1
1
1
1
1
1
1
1
1
1
1
1
1
1
1
1
1.00001
1.00006
1.00033
1.00378
1.02542
1.22453
2.0996
4.13363
6.28135
1
1
1
1
1
1
1
1
1
1
1
1
1
1
1
1
1
1.00001
1.00014
1.00005
1.01122
1.05022
1.55923
2.97296
5.32687
1
1
1
1
1
1
1
1
1
1
1
1
1
1
1
1
1
1.00001
1.00006
1.0004
1.00362
1.02396
1.20763
2.06288
4.12664
1
1
1
1
1
1
1
1
1
1
1
1
1
1
1
1
1
1
1.00002
1.0001
0.999218
1.00944
1.05095
1.55102
2.98641
1
1
1
1
1
1
1
1
1
1
1
1
1
1
1
1
1
1
1.00001
1.00006
1.00041
1.00361
1.02492
1.21205
2.08583
1
1
1
1
1
1
1
1
1
1
1
1
1
1
1
1
1
1
1
1
1.0002
1.00034
1.01189
1.0632
1.65986
1
1
1
1
1
1
1
1
1
1
1
1
1
1
1
1
1
1
1
1
1.00008
1.00037
1.00411
1.02982
1.22772
1
1
1
1
1
1
1
1
1
1
1
1
1
1
1
1
1
1
1
1
1.00002
1.00013
1.0003
1.01362
1.03714
1
1
1
1
1
1
1
1
1
1
1
1
1
1
1
1
1
1
1
1
0.999996
1.0001
1.00041
1.00628
1.03537
1
1
1
1
1
1
1
1
1
1
1
1
1
1
1
1
1
1
1
1
1
1.00004
1.00029
1.0025
1.01785
1
1
1
1
1
1
1
1
1
1
1
1
1
1
1
1
1
1
1
1
1
1.00004
1.00024
1.00021
1.009
1
1
1
1
1
1
1
1
1
1
1
1
1
1
1
1
1
1
1
1
1
1
1.00009
1.00032
1.00493
1
1
1
1
1
1
1
1
1
1
1
1
1
1
1
1
1
1
1
1
1
1
1.00004
1.0003
1.00328
1
1
1
1
1
1
1
1
1
1
1
1
1
1
1
1
1
1
1
1
1
1.00001
1.00003
1.00038
1.00322
1.82054
1.00195
1.30256
2.35417
2.21757
2.22906
2.24321
2.28492
2.32605
2.3841
2.45525
2.55519
2.69733
2.87882
3.09066
3.32461
3.56148
3.80899
4.00924
4.17801
4.32123
4.43608
4.53121
4.60901
4.66981
4.7208
4.76573
4.80578
4.84214
4.87708
4.91037
4.94534
4.9818
5.01956
5.05968
5.10245
5.14739
5.19308
5.23838
5.28303
5.32588
5.36596
5.4031
5.43751
5.46947
5.4989
5.5258
5.55013
5.57201
5.59147
5.60853
5.62346
5.6364
5.64751
5.65704
5.6651
5.67169
5.67623
5.67656
5.66998
5.65281
5.61474
5.53101
5.34718
4.93655
4.03787
2.55031
1.39293
1.05598
1.0064
1.00071
1.00008
1.00001
1
1
1
1
1
1
1
1
1
1
1
1
1
1
1
1
1
1
1
1
1
1
1
1
1
1
1
2.93436
1.98341
2.05078
2.41165
2.26122
2.21557
2.24488
2.28674
2.34562
2.40189
2.4465
2.52156
2.66664
2.85268
3.05878
3.29153
3.54234
3.7835
3.9865
4.16156
4.3098
4.42129
4.51715
4.59569
4.65855
4.71073
4.75615
4.79684
4.83451
4.8702
4.90473
4.93994
4.97689
5.01453
5.05433
5.09715
5.1419
5.18808
5.23406
5.27823
5.3207
5.36119
5.3987
5.43332
5.46548
5.49512
5.52227
5.54696
5.56916
5.58902
5.60657
5.62196
5.63529
5.64671
5.65641
5.66458
5.67122
5.67597
5.67671
5.67019
5.65274
5.61441
5.53057
5.34682
4.93664
4.03895
2.55199
1.3937
1.0561
1.00642
1.00071
1.00008
1.00001
1
1
1
1
1
1
1
1
1
1
1
1
1
1
1
1
1
1
1
1
1
1
1
1
1
1
1
3.83729
2.70271
2.32536
2.42526
2.40728
2.35955
2.34294
2.3426
2.36677
2.37138
2.44415
2.55393
2.69161
2.87179
3.08325
3.31379
3.55727
3.78664
3.97855
4.14283
4.28086
4.39641
4.49096
4.57557
4.6414
4.69552
4.74513
4.78733
4.82522
4.86149
4.89684
4.93298
4.97102
5.00985
5.04963
5.09173
5.13645
5.18256
5.22842
5.27326
5.31643
5.35736
5.39576
5.43165
5.46472
5.49496
5.52253
5.5474
5.56985
5.58986
5.60742
5.62281
5.6362
5.64773
5.65736
5.66537
5.67181
5.67661
5.67766
5.67105
5.65301
5.61441
5.53067
5.34703
4.93683
4.03907
2.55208
1.39374
1.05612
1.00642
1.00071
1.00008
1.00001
1
1
1
1
1
1
1
1
1
1
1
1
1
1
1
1
1
1
1
1
1
1
1
1
1
1
1
4.33183
3.25128
2.66894
2.55758
2.5661
2.52558
2.50125
2.46862
2.48374
2.48867
2.53295
2.64511
2.7706
2.91853
3.1132
3.34603
3.58707
3.79735
3.97538
4.13044
4.26575
4.38155
4.47432
4.55162
4.61443
4.67846
4.73205
4.77502
4.81384
4.85157
4.88856
4.92608
4.96428
5.00423
5.04534
5.08767
5.13167
5.17721
5.22343
5.26821
5.31149
5.35286
5.39153
5.42744
5.46044
5.49082
5.51846
5.54367
5.56633
5.58673
5.60478
5.62064
5.63441
5.64622
5.6562
5.66444
5.67106
5.67588
5.67681
5.6704
5.65281
5.61436
5.53064
5.34734
4.93812
4.04209
2.55588
1.39543
1.05641
1.00645
1.00071
1.00008
1.00001
1
1
1
1
1
1
1
1
1
1
1
1
1
1
1
1
1
1
1
1
1
1
1
1
1
1
1
4.66729
3.64491
2.99251
2.73885
2.73084
2.72698
2.70467
2.67469
2.65739
2.6626
2.6746
2.72859
2.8437
2.98692
3.16888
3.38577
3.61618
3.81599
3.97881
4.12398
4.25063
4.35701
4.45772
4.53369
4.59807
4.66337
4.71618
4.7608
4.80218
4.84193
4.88059
4.91896
4.95878
4.99974
5.04029
5.08243
5.127
5.17251
5.21807
5.26353
5.30801
5.34991
5.389
5.42581
5.45971
5.49076
5.51915
5.54463
5.56768
5.58814
5.60619
5.62195
5.63573
5.64755
5.65756
5.66558
5.67208
5.67688
5.67785
5.6712
5.65342
5.61484
5.53101
5.34759
4.93822
4.04204
2.55582
1.39544
1.05642
1.00646
1.00071
1.00008
1.00001
1
1
1
1
1
1
1
1
1
1
1
1
1
1
1
1
1
1
1
1
1
1
1
1
1
1
1
4.89275
3.98477
3.29228
2.9993
2.95703
2.9224
2.89626
2.87895
2.85015
2.83172
2.86103
2.90067
2.97102
3.06925
3.21358
3.40543
3.62544
3.82962
3.9895
4.12067
4.24075
4.34562
4.43655
4.51584
4.58646
4.64845
4.70143
4.74716
4.79034
4.83222
4.87224
4.91217
4.95276
4.99326
5.03548
5.07982
5.12356
5.16794
5.21537
5.26257
5.30461
5.34442
5.38475
5.42192
5.45526
5.48643
5.51525
5.54112
5.56439
5.58505
5.60323
5.61952
5.63377
5.64599
5.65628
5.66472
5.67138
5.67591
5.67681
5.67066
5.65337
5.61471
5.53083
5.34794
4.94023
4.04715
2.56244
1.3984
1.05693
1.00652
1.00072
1.00008
1.00001
1
1
1
1
1
1
1
1
1
1
1
1
1
1
1
1
1
1
1
1
1
1
1
1
1
1
1
5.07116
4.24693
3.59758
3.28037
3.15807
3.08716
3.05098
3.02201
3.00706
3.00959
3.01905
3.05446
3.09703
3.16574
3.27881
3.44316
3.63299
3.83317
3.9989
4.12413
4.23278
4.33201
4.42102
4.5008
4.57489
4.63721
4.68947
4.73574
4.7819
4.82545
4.86703
4.90778
4.94758
4.98884
5.0322
5.075
5.11723
5.16396
5.21304
5.25679
5.29912
5.34485
5.385
5.41798
5.45282
5.48725
5.51657
5.54289
5.56647
5.58727
5.60564
5.62162
5.63558
5.64781
5.65824
5.66674
5.67313
5.67749
5.67799
5.67168
5.65429
5.61538
5.53128
5.34829
4.94048
4.04724
2.56251
1.39847
1.05696
1.00652
1.00072
1.00008
1.00001
1
1
1
1
1
1
1
1
1
1
1
1
1
1
1
1
1
1
1
1
1
1
1
1
1
1
1
5.21115
4.471
3.86999
3.51718
3.32729
3.23885
3.17743
3.1475
3.15948
3.17862
3.17367
3.19765
3.24493
3.30651
3.37353
3.48569
3.64187
3.8269
4.00063
4.12836
4.23106
4.32666
4.41003
4.48808
4.56238
4.62367
4.67531
4.72634
4.77566
4.81943
4.86084
4.9014
4.94216
4.9851
5.02867
5.07064
5.11571
5.16491
5.20848
5.2514
5.30095
5.34331
5.37608
5.41409
5.45321
5.48541
5.51394
5.54068
5.56461
5.58552
5.60416
5.62032
5.63457
5.64706
5.65756
5.66607
5.67253
5.67669
5.67726
5.67147
5.65418
5.61509
5.53111
5.34893
4.94327
4.05422
2.57154
1.40251
1.05766
1.0066
1.00073
1.00008
1.00001
1
1
1
1
1
1
1
1
1
1
1
1
1
1
1
1
1
1
1
1
1
1
1
1
1
1
1
5.34175
4.66634
4.09602
3.74277
3.54748
3.4124
3.31668
3.3027
3.30789
3.30857
3.31499
3.326
3.36837
3.41801
3.46789
3.54301
3.67049
3.82783
3.99482
4.12887
4.2322
4.32335
4.40332
4.48099
4.55506
4.61273
4.66645
4.72232
4.77156
4.81457
4.85622
4.89762
4.93912
4.98242
5.02405
5.0669
5.11478
5.16007
5.20416
5.25371
5.29759
5.33518
5.37642
5.41765
5.45419
5.486
5.51547
5.54333
5.5676
5.58847
5.60688
5.62295
5.63702
5.64932
5.65962
5.66804
5.67451
5.67837
5.67873
5.67278
5.65522
5.61586
5.53172
5.34945
4.94373
4.05469
2.57211
1.40282
1.05774
1.00662
1.00073
1.00008
1.00001
1
1
1
1
1
1
1
1
1
1
1
1
1
1
1
1
1
1
1
1
1
1
1
1
1
1
1
5.45791
4.83721
4.31002
3.9438
3.73595
3.58563
3.48105
3.45988
3.43591
3.43083
3.45604
3.45333
3.47908
3.52701
3.57915
3.62249
3.7109
3.83925
3.98688
4.12154
4.22738
4.31959
4.40085
4.47733
4.54824
4.60685
4.6629
4.71786
4.76401
4.80703
4.84961
4.89254
4.93669
4.97916
5.02145
5.0695
5.11482
5.15975
5.20747
5.25116
5.29362
5.33834
5.37869
5.41463
5.45186
5.48471
5.51502
5.54335
5.56711
5.58793
5.60666
5.623
5.63713
5.64922
5.65929
5.66773
5.67429
5.67843
5.67901
5.67306
5.65532
5.61582
5.53186
5.35048
4.9472
4.06299
2.58281
1.40761
1.05857
1.00671
1.00074
1.00008
1.00001
1
1
1
1
1
1
1
1
1
1
1
1
1
1
1
1
1
1
1
1
1
1
1
1
1
1
1
5.55417
4.98822
4.49763
4.14806
3.91699
3.7518
3.6396
3.58149
3.54621
3.54149
3.56493
3.56708
3.5829
3.62481
3.67593
3.71392
3.77065
3.87642
3.99728
4.11592
4.22074
4.31338
4.39604
4.47295
4.54225
4.60033
4.66088
4.71374
4.75726
4.80188
4.84725
4.89114
4.93422
4.97652
5.02252
5.06724
5.11203
5.15978
5.20547
5.25167
5.30012
5.3385
5.37524
5.42106
5.45785
5.48534
5.51762
5.54671
5.56974
5.59091
5.61024
5.62612
5.63971
5.65163
5.66175
5.67006
5.67635
5.68034
5.68085
5.67468
5.6566
5.61676
5.53258
5.35111
4.94793
4.06408
2.58415
1.40827
1.05872
1.00673
1.00074
1.00008
1.00001
1
1
1
1
1
1
1
1
1
1
1
1
1
1
1
1
1
1
1
1
1
1
1
1
1
1
1
5.62581
5.11923
4.66376
4.32865
4.12507
3.94366
3.81271
3.69641
3.65567
3.65231
3.65521
3.6642
3.67748
3.70997
3.76473
3.81266
3.8559
3.9315
4.02675
4.12518
4.22023
4.30881
4.39213
4.4674
4.53678
4.60119
4.65602
4.70404
4.75296
4.80068
4.84401
4.88581
4.93021
4.97766
5.02457
5.06777
5.11749
5.16134
5.2067
5.25677
5.29822
5.3383
5.38399
5.42252
5.45258
5.49053
5.52559
5.54648
5.56757
5.59318
5.61265
5.62779
5.64092
5.65256
5.66266
5.67084
5.67704
5.68106
5.68171
5.67558
5.65734
5.61733
5.53325
5.35264
4.95195
4.07306
2.59555
1.41338
1.0596
1.00684
1.00075
1.00008
1.00001
1
1
1
1
1
1
1
1
1
1
1
1
1
1
1
1
1
1
1
1
1
1
1
1
1
1
1
5.69479
5.23621
4.8132
4.48063
4.31177
4.11977
3.97286
3.83616
3.77907
3.75456
3.73635
3.75138
3.75822
3.77946
3.82645
3.87863
3.9383
3.99174
4.07075
4.16004
4.24211
4.3189
4.39583
4.46942
4.53615
4.60047
4.65166
4.70301
4.75449
4.79511
4.83988
4.88734
4.93606
4.97689
5.02175
5.07197
5.11799
5.16015
5.21081
5.25452
5.29766
5.34634
5.38435
5.41955
5.46163
5.50144
5.52643
5.54692
5.57525
5.5998
5.61609
5.63133
5.64439
5.65543
5.66534
5.67342
5.67947
5.68333
5.68376
5.67736
5.65882
5.6185
5.53418
5.35351
4.95306
4.0748
2.59764
1.41437
1.0598
1.00686
1.00076
1.00008
1.00001
1
1
1
1
1
1
1
1
1
1
1
1
1
1
1
1
1
1
1
1
1
1
1
1
1
1
1
5.75266
5.34701
4.95671
4.62827
4.44813
4.27263
4.11291
3.99472
3.91479
3.86207
3.83711
3.83974
3.8345
3.83184
3.87418
3.93921
3.97119
4.04236
4.13198
4.2166
4.28573
4.3498
4.41373
4.47872
4.54161
4.59923
4.65738
4.70823
4.75245
4.79244
4.84149
4.89178
4.93206
4.97817
5.0309
5.08121
5.1204
5.16807
5.21644
5.25751
5.30527
5.34709
5.38597
5.42998
5.47203
5.50076
5.52159
5.55229
5.58317
5.60075
5.61646
5.63343
5.64702
5.65806
5.66754
5.67539
5.68132
5.68504
5.68537
5.67887
5.66022
5.6198
5.53558
5.35565
4.95745
4.08375
2.60869
1.41941
1.06067
1.00696
1.00077
1.00008
1.00001
1
1
1
1
1
1
1
1
1
1
1
1
1
1
1
1
1
1
1
1
1
1
1
1
1
1
1
5.81469
5.44522
5.09178
4.77371
4.58538
4.43138
4.26347
4.13329
4.02898
3.97957
3.94453
3.89906
3.87347
3.88958
3.91543
3.95141
3.99637
4.06753
4.16298
4.25152
4.32459
4.38455
4.44106
4.49689
4.5531
4.60877
4.66126
4.71029
4.75673
4.80313
4.84872
4.89006
4.93509
4.98636
5.03653
5.07939
5.12521
5.17671
5.2186
5.26518
5.31213
5.35343
5.39813
5.43963
5.47342
5.49816
5.52779
5.56264
5.5847
5.59985
5.62245
5.6399
5.65175
5.66237
5.67115
5.67843
5.68396
5.68745
5.68762
5.68095
5.66206
5.62137
5.53691
5.35691
4.95897
4.08596
2.61116
1.42054
1.06089
1.00699
1.00077
1.00008
1.00001
1
1
1
1
1
1
1
1
1
1
1
1
1
1
1
1
1
1
1
1
1
1
1
1
1
1
1
5.87226
5.53518
5.21028
4.90303
4.7268
4.57349
4.41489
4.27799
4.18117
4.11821
4.03277
3.97355
3.96063
3.94882
3.94429
3.95096
4.02888
4.07502
4.15705
4.25161
4.33986
4.40891
4.46377
4.51454
4.56579
4.6171
4.66924
4.7164
4.76397
4.81205
4.85354
4.89325
4.94475
4.99077
5.0371
5.0842
5.14118
5.18823
5.23395
5.28361
5.32499
5.36449
5.40577
5.44558
5.47326
5.50311
5.54031
5.56532
5.58455
5.60965
5.63199
5.64331
5.65481
5.66575
5.67452
5.68156
5.68695
5.69029
5.69023
5.68331
5.66428
5.62351
5.53913
5.35968
4.96352
4.09417
2.6209
1.42492
1.06164
1.00708
1.00078
1.00009
1.00001
1
1
1
1
1
1
1
1
1
1
1
1
1
1
1
1
1
1
1
1
1
1
1
1
1
1
1
5.93963
5.63057
5.33477
5.05266
4.86719
4.71162
4.5668
4.43696
4.31988
4.20463
4.10294
4.0707
4.05935
3.99084
3.97441
4.00916
4.04565
4.08938
4.15643
4.23777
4.32568
4.40795
4.47482
4.52913
4.57736
4.62728
4.67903
4.72691
4.77492
4.81941
4.86226
4.91012
4.94962
4.99528
5.04161
5.09473
5.14398
5.19261
5.24597
5.29213
5.33112
5.37304
5.41505
5.44749
5.47859
5.51821
5.55043
5.57014
5.59681
5.62338
5.63362
5.64379
5.65937
5.6695
5.67829
5.68513
5.69021
5.69331
5.69298
5.6858
5.66659
5.62566
5.54108
5.36151
4.96544
4.09644
2.6231
1.42585
1.06181
1.0071
1.00078
1.00009
1.00001
1
1
1
1
1
1
1
1
1
1
1
1
1
1
1
1
1
1
1
1
1
1
1
1
1
1
1
6.00933
5.72212
5.46584
5.20238
5.00838
4.84532
4.71692
4.57594
4.446
4.311
4.23684
4.19822
4.14772
4.07385
4.03211
4.07367
4.07881
4.10528
4.15597
4.22441
4.30385
4.38778
4.46799
4.53275
4.58501
4.63582
4.68397
4.73527
4.77923
4.82544
4.87355
4.92187
4.96411
5.00803
5.0556
5.10567
5.15126
5.20332
5.25464
5.30137
5.34558
5.39133
5.42939
5.46016
5.49579
5.52674
5.55297
5.58295
5.60663
5.62048
5.6347
5.65435
5.66705
5.67477
5.68296
5.69002
5.69477
5.69751
5.69682
5.68931
5.66992
5.62891
5.54431
5.36498
4.96994
4.1032
2.63046
1.42904
1.06234
1.00715
1.00079
1.00009
1.00001
1
1
1
1
1
1
1
1
1
1
1
1
1
1
1
1
1
1
1
1
1
1
1
1
1
1
1
6.07844
5.82239
5.59222
5.3423
5.13184
4.9866
4.84567
4.70236
4.56728
4.47407
4.40861
4.32311
4.2517
4.20223
4.14702
4.13562
4.13006
4.12692
4.16381
4.22564
4.29116
4.36744
4.4511
4.52836
4.58889
4.64036
4.69169
4.74059
4.78912
4.83788
4.88274
4.93034
4.98005
5.02351
5.07126
5.11659
5.16418
5.21631
5.26348
5.30916
5.35769
5.40001
5.43757
5.47464
5.5076
5.5346
5.56356
5.59104
5.60614
5.62584
5.64602
5.66076
5.67377
5.68194
5.68893
5.69558
5.69966
5.70182
5.70061
5.69266
5.67306
5.63192
5.54713
5.36753
4.97215
4.10493
2.63142
1.42928
1.06236
1.00716
1.00079
1.00009
1.00001
1
1
1
1
1
1
1
1
1
1
1
1
1
1
1
1
1
1
1
1
1
1
1
1
1
1
1
6.18554
5.93288
5.71331
5.47232
5.25302
5.12942
4.96267
4.82763
4.72078
4.65225
4.55709
4.45154
4.35263
4.30957
4.24318
4.18843
4.19764
4.2125
4.22628
4.26147
4.30525
4.36675
4.44421
4.52478
4.59302
4.64834
4.6993
4.74895
4.79953
4.84739
4.8961
4.9451
4.99513
5.04353
5.08844
5.1364
5.18371
5.23241
5.27848
5.32519
5.37192
5.41399
5.45327
5.48997
5.52272
5.55372
5.57693
5.59606
5.61757
5.63758
5.65365
5.6699
5.68237
5.68829
5.69455
5.70129
5.70572
5.7075
5.70567
5.69725
5.67745
5.63625
5.55137
5.37167
4.97637
4.10951
2.63535
1.43074
1.06257
1.00717
1.00079
1.00009
1.00001
1
1
1
1
1
1
1
1
1
1
1
1
1
1
1
1
1
1
1
1
1
1
1
1
1
1
1
6.29855
6.04073
5.8418
5.62373
5.40099
5.24895
5.10128
4.99309
4.89199
4.78894
4.6754
4.59389
4.47737
4.40675
4.37558
4.3053
4.28755
4.30861
4.31423
4.31749
4.34412
4.39082
4.45379
4.52676
4.59952
4.66115
4.71394
4.76561
4.81373
4.86464
4.91575
4.96216
5.01113
5.0656
5.11051
5.15894
5.20804
5.25405
5.3014
5.34442
5.38574
5.42763
5.46641
5.50321
5.53567
5.56441
5.58893
5.6105
5.63308
5.64487
5.66275
5.68223
5.68701
5.69486
5.70162
5.70684
5.71092
5.71257
5.71038
5.70154
5.68148
5.64015
5.55508
5.37492
4.97863
4.10991
2.63392
1.42972
1.06235
1.00714
1.00079
1.00009
1.00001
1
1
1
1
1
1
1
1
1
1
1
1
1
1
1
1
1
1
1
1
1
1
1
1
1
1
1
6.3838
6.16706
5.98031
5.80125
5.57781
5.38626
5.25603
5.16501
5.05175
4.91737
4.80697
4.72759
4.64394
4.54182
4.48044
4.44677
4.40991
4.4065
4.39564
4.38633
4.403
4.43724
4.48534
4.54618
4.61338
4.67823
4.73532
4.78752
4.83817
4.886
4.9346
4.98434
5.03182
5.08379
5.13833
5.18448
5.23803
5.28267
5.32829
5.37222
5.41384
5.45144
5.4891
5.5205
5.55396
5.58205
5.60757
5.63118
5.64752
5.66186
5.67886
5.69017
5.69576
5.70401
5.70997
5.71433
5.71769
5.71921
5.71683
5.70771
5.6874
5.64584
5.56047
5.37973
4.98233
4.11164
2.63346
1.42898
1.06216
1.00711
1.00078
1.00009
1.00001
1
1
1
1
1
1
1
1
1
1
1
1
1
1
1
1
1
1
1
1
1
1
1
1
1
1
1
6.49011
6.2779
6.07617
5.89979
5.72085
5.55866
5.4626
5.3195
5.19183
5.07996
4.99237
4.88636
4.84105
4.75331
4.60722
4.55569
4.54037
4.50069
4.49102
4.48933
4.49544
4.5138
4.54653
4.59239
4.64811
4.70725
4.76513
4.81906
4.86891
4.91656
4.96319
5.01066
5.06194
5.11115
5.16359
5.21547
5.26692
5.3157
5.35406
5.39869
5.4422
5.47908
5.51383
5.54551
5.5733
5.60269
5.62591
5.6472
5.66305
5.67742
5.6908
5.69522
5.70564
5.71587
5.72012
5.72298
5.72587
5.72656
5.72337
5.7137
5.69306
5.65122
5.56542
5.3838
4.98437
4.10983
2.62847
1.42614
1.0616
1.00704
1.00077
1.00008
1.00001
1
1
1
1
1
1
1
1
1
1
1
1
1
1
1
1
1
1
1
1
1
1
1
1
1
1
1
6.63532
6.41916
6.21309
6.03204
5.8777
5.74793
5.6331
5.47688
5.34946
5.23576
5.1457
5.02251
4.96234
4.91126
4.7937
4.69832
4.65665
4.60457
4.59052
4.5881
4.59076
4.60279
4.62378
4.65804
4.70224
4.75345
4.80688
4.85998
4.91042
4.95678
5.00183
5.04677
5.09487
5.14721
5.19662
5.24786
5.2982
5.34863
5.39373
5.43342
5.47113
5.51121
5.54318
5.57528
5.60183
5.62589
5.64922
5.66582
5.68101
5.69929
5.70467
5.70925
5.72166
5.73088
5.73248
5.73329
5.73566
5.73607
5.73227
5.72196
5.70077
5.65842
5.57199
5.38921
4.98729
4.10807
2.6228
1.42286
1.06093
1.00695
1.00076
1.00008
1.00001
1
1
1
1
1
1
1
1
1
1
1
1
1
1
1
1
1
1
1
1
1
1
1
1
1
1
1
6.74511
6.53301
6.36783
6.2055
6.06305
5.92533
5.76379
5.63573
5.52236
5.41345
5.29732
5.18798
5.13221
5.06734
4.96221
4.83267
4.78404
4.75688
4.7111
4.69648
4.6953
4.70189
4.71507
4.73606
4.76916
4.81351
4.86192
4.91237
4.96202
5.00791
5.05165
5.09719
5.144
5.1918
5.24167
5.28859
5.33686
5.3829
5.42856
5.46989
5.50605
5.54111
5.5746
5.60272
5.62958
5.65164
5.67164
5.68871
5.70351
5.71577
5.72407
5.73003
5.73368
5.73807
5.74411
5.74369
5.74415
5.74426
5.74042
5.72989
5.70829
5.66538
5.57815
5.39389
4.98875
4.10324
2.61322
1.41778
1.05996
1.00683
1.00075
1.00008
1.00001
1
1
1
1
1
1
1
1
1
1
1
1
1
1
1
1
1
1
1
1
1
1
1
1
1
1
1
6.90994
6.74824
6.58624
6.41193
6.25623
6.09717
5.94057
5.83071
5.70358
5.58386
5.4754
5.4357
5.31247
5.19882
5.11674
4.99841
4.90787
4.88037
4.85044
4.83242
4.82161
4.81614
4.81918
4.8311
4.85689
4.89191
4.93237
4.97875
5.02749
5.07491
5.11985
5.16411
5.2084
5.25236
5.29744
5.34232
5.38478
5.42855
5.46983
5.50996
5.5478
5.57972
5.61033
5.63768
5.66076
5.68199
5.69932
5.71461
5.72795
5.73546
5.745
5.75035
5.74986
5.7566
5.76024
5.75803
5.75656
5.75496
5.75102
5.74043
5.71824
5.67444
5.58601
5.3998
4.99065
4.09748
2.60174
1.41184
1.05882
1.00668
1.00073
1.00008
1.00001
1
1
1
1
1
1
1
1
1
1
1
1
1
1
1
1
1
1
1
1
1
1
1
1
1
1
1
7.09814
6.985
6.80919
6.62142
6.44798
6.28171
6.13621
6.00447
5.87611
5.76169
5.66604
5.63105
5.45617
5.30681
5.23529
5.19859
5.08768
5.02855
4.9958
4.96895
4.95237
4.94586
4.94663
4.95539
4.97177
4.99736
5.03132
5.07047
5.11501
5.16133
5.20721
5.25098
5.29243
5.33389
5.37495
5.41471
5.45455
5.49033
5.52776
5.56318
5.59619
5.62671
5.65269
5.67648
5.69735
5.71472
5.73014
5.74268
5.75255
5.76185
5.76633
5.77278
5.77778
5.77553
5.77228
5.77433
5.77003
5.76639
5.76182
5.75134
5.7289
5.68422
5.59429
5.40561
4.99156
4.08912
2.58682
1.40439
1.05742
1.00651
1.00071
1.00008
1.00001
1
1
1
1
1
1
1
1
1
1
1
1
1
1
1
1
1
1
1
1
1
1
1
1
1
1
1
7.05762
7.18371
7.02504
6.81295
6.64594
6.46375
6.31417
6.16893
6.04915
5.93481
5.84007
5.74946
5.67554
5.54188
5.4075
5.35028
5.29428
5.20342
5.15317
5.12503
5.11159
5.09857
5.09482
5.101
5.11308
5.13447
5.16333
5.19855
5.2396
5.28426
5.32913
5.37097
5.4093
5.44601
5.48181
5.51527
5.54793
5.58009
5.61034
5.64
5.66758
5.69147
5.71301
5.73147
5.74762
5.76152
5.77273
5.78172
5.789
5.79361
5.7978
5.80018
5.80335
5.80076
5.79929
5.79664
5.78913
5.78249
5.7762
5.76508
5.74213
5.6964
5.6046
5.41274
4.99258
4.0793
2.56959
1.39585
1.05584
1.00631
1.00069
1.00007
1.00001
1
1
1
1
1
1
1
1
1
1
1
1
1
1
1
1
1
1
1
1
1
1
1
1
1
1
1
6.46541
7.39916
7.22965
7.02063
6.82035
6.64307
6.48125
6.33991
6.22046
6.13744
6.10444
5.91142
5.81286
5.73751
5.59626
5.49378
5.43417
5.38714
5.3452
5.3116
5.29047
5.27739
5.28484
5.29611
5.30342
5.31986
5.34726
5.38082
5.4185
5.45945
5.49841
5.53502
5.56926
5.60271
5.63218
5.65805
5.68343
5.70671
5.72915
5.74927
5.76728
5.78319
5.79668
5.80809
5.81736
5.82467
5.83043
5.83414
5.83603
5.83706
5.83682
5.83589
5.83374
5.83362
5.83089
5.82293
5.8139
5.80379
5.79441
5.78166
5.75755
5.7103
5.61616
5.42049
4.99309
4.0673
2.54948
1.3861
1.05407
1.00609
1.00066
1.00007
1.00001
1
1
1
1
1
1
1
1
1
1
1
1
1
1
1
1
1
1
1
1
1
1
1
1
1
1
1
5.45009
7.33356
7.36407
7.21357
7.00392
6.83616
6.67144
6.54244
6.4314
6.37895
6.3532
6.15189
5.98313
5.92111
5.82919
5.70616
5.6411
5.61444
5.57727
5.56173
5.53833
5.54428
5.54716
5.56168
5.57849
5.60049
5.623
5.64829
5.67982
5.71091
5.73995
5.768
5.79302
5.8175
5.83804
5.85524
5.87188
5.88492
5.89441
5.90177
5.90738
5.91194
5.9151
5.9165
5.91631
5.91477
5.91204
5.90818
5.90324
5.89756
5.89158
5.88498
5.8786
5.8711
5.86403
5.8574
5.84735
5.83419
5.81968
5.80324
5.7768
5.72732
5.63016
5.42979
4.99379
4.05378
2.52724
1.37544
1.05216
1.00586
1.00063
1.00007
1.00001
1
1
1
1
1
1
1
1
1
1
1
1
1
1
1
1
1
1
1
1
1
1
1
1
1
1
1
4.2806
6.79962
7.58224
7.3819
7.18867
7.03172
6.87553
6.75712
6.66036
6.58551
6.48871
6.36862
6.26593
6.2163
6.15253
6.02502
5.96719
5.9335
5.9124
5.91284
5.9106
5.92563
5.9398
5.95538
5.97961
5.99266
6.01066
6.02776
6.04433
6.05774
6.06823
6.0795
6.09033
6.10015
6.10768
6.11148
6.11339
6.11207
6.10635
6.09821
6.08954
6.07983
6.06893
6.05713
6.04419
6.03066
6.01654
6.0023
5.98808
5.97406
5.96034
5.94686
5.93364
5.92085
5.90871
5.89654
5.88456
5.869
5.85051
5.82955
5.79959
5.74708
5.64628
5.44048
4.99488
4.03875
2.50295
1.36412
1.05016
1.00561
1.00061
1.00007
1.00001
1
1
1
1
1
1
1
1
1
1
1
1
1
1
1
1
1
1
1
1
1
1
1
1
1
1
1
3.19527
5.76565
7.55463
7.5008
7.35718
7.20987
7.06608
6.95451
6.87432
6.79442
6.78323
6.72182
6.61458
6.56619
6.58046
6.52294
6.45441
6.4372
6.47663
6.47256
6.49167
6.49512
6.5073
6.51625
6.52516
6.51717
6.50824
6.50191
6.49588
6.48296
6.47063
6.45825
6.44315
6.43495
6.42654
6.41328
6.39762
6.37848
6.35622
6.33191
6.30639
6.27972
6.25222
6.22477
6.1972
6.16975
6.14273
6.11641
6.09122
6.06707
6.0439
6.02186
6.00094
5.98106
5.96241
5.94478
5.92792
5.90897
5.88692
5.86114
5.82671
5.77026
5.6651
5.45297
4.9968
4.02312
2.4775
1.35248
1.04814
1.00537
1.00058
1.00006
1.00001
1
1
1
1
1
1
1
1
1
1
1
1
1
1
1
1
1
1
1
1
1
1
1
1
1
1
1
2.15663
4.49003
7.05627
7.63847
7.52447
7.38132
7.26873
7.20258
7.2146
7.23984
7.21337
7.28173
7.22601
7.14988
7.21521
7.2629
7.26874
7.26804
7.28179
7.27976
7.2737
7.25917
7.22384
7.1867
7.15139
7.11376
7.06356
7.01712
6.96876
6.92056
6.87936
6.84442
6.79922
6.76535
6.737
6.70659
6.67492
6.64141
6.60514
6.56628
6.52552
6.48345
6.44136
6.39906
6.35702
6.31584
6.27632
6.2385
6.20222
6.16778
6.13511
6.10431
6.07542
6.04832
6.023
5.99924
5.97669
5.95369
5.92782
5.89737
5.85802
5.79686
5.68661
5.46734
4.99974
4.00749
2.45166
1.34082
1.04613
1.00512
1.00055
1.00006
1.00001
1
1
1
1
1
1
1
1
1
1
1
1
1
1
1
1
1
1
1
1
1
1
1
1
1
1
1
1.64528
3.45011
6.32353
7.81803
7.7274
7.62905
7.61687
7.65443
7.89263
7.95719
8.03121
8.1654
8.27843
8.24466
8.28577
8.38116
8.39075
8.37121
8.29637
8.21716
8.1094
8.01748
7.92645
7.81755
7.7061
7.61008
7.52068
7.43384
7.34513
7.26734
7.20045
7.14115
7.08454
7.03112
6.98374
6.94179
6.89996
6.85549
6.80868
6.75957
6.70858
6.65658
6.60405
6.55134
6.49917
6.44882
6.40029
6.35354
6.30861
6.26591
6.22565
6.18771
6.15196
6.11836
6.0869
6.05732
6.02941
6.0019
5.97214
5.93738
5.8931
5.82677
5.71083
5.48377
5.00405
3.99264
2.42647
1.32959
1.04421
1.00489
1.00052
1.00006
1.00001
1
1
1
1
1
1
1
1
1
1
1
1
1
1
1
1
1
1
1
1
1
1
1
1
1
1
1
1.36623
2.59365
5.28162
7.69302
7.98433
8.07972
8.23004
8.50161
9.06623
9.20865
9.30332
9.47266
9.71021
9.79686
9.70991
9.61458
9.4806
9.29071
9.1003
8.92503
8.73068
8.54198
8.37876
8.2193
8.06082
7.91483
7.78377
7.66396
7.55942
7.46468
7.38123
7.30231
7.24881
7.18812
7.12539
7.07336
7.02624
6.97796
6.927
6.87333
6.81809
6.76285
6.70721
6.65175
6.59723
6.54414
6.49245
6.44214
6.39378
6.3475
6.30337
6.26139
6.22153
6.18374
6.14802
6.11421
6.08214
6.05076
6.01756
5.97907
5.93028
5.85885
5.73696
5.50192
5.00976
3.97908
2.40292
1.31921
1.04245
1.00468
1.0005
1.00005
1.00001
1
1
1
1
1
1
1
1
1
1
1
1
1
1
1
1
1
1
1
1
1
1
1
1
1
1
1
1.16079
1.93405
4.0839
6.99021
8.51822
9.00967
9.67818
10.3562
10.6731
11.0876
11.0893
11.1073
11.0586
10.9314
10.6454
10.3243
10.0392
9.74921
9.46862
9.21768
8.97584
8.74433
8.54224
8.35446
8.17651
8.01635
7.87211
7.74504
7.63232
7.5313
7.43941
7.36098
7.30371
7.24204
7.17652
7.11457
7.06076
7.00912
6.95639
6.90253
6.84965
6.7972
6.74479
6.6923
6.64149
6.59157
6.54251
6.49453
6.44808
6.40317
6.35963
6.31756
6.27708
6.2382
6.2009
6.16507
6.13063
6.09681
6.06119
6.01994
5.96746
5.89142
5.76374
5.52089
5.0167
3.96766
2.38206
1.31003
1.0409
1.00449
1.00048
1.00005
1.00001
1
1
1
1
1
1
1
1
1
1
1
1
1
1
1
1
1
1
1
1
1
1
1
1
1
1
1
1.05588
1.52791
3.16806
6.5038
9.64493
11.0387
11.8744
12.5058
12.4118
12.3879
12.2224
11.8689
11.4358
11.06
10.7018
10.3453
10.0197
9.71589
9.43781
9.17608
8.92935
8.69824
8.4932
8.31197
8.14552
7.99132
7.85788