/*--------------------------------*- C++ -*----------------------------------*\
| =========                 |                                                 |
| \\      /  F ield         | OpenFOAM: The Open Source CFD Toolbox           |
|  \\    /   O peration     | Version:  v2106                                 |
|   \\  /    A nd           | Website:  www.openfoam.com                      |
|    \\/     M anipulation  |                                                 |
\*---------------------------------------------------------------------------*/
FoamFile
{
    version     2.0;
    format      ascii;
    arch        "LSB;label=32;scalar=64";
    class       surfaceScalarField;
    location    "1";
    object      phi;
}
// * * * * * * * * * * * * * * * * * * * * * * * * * * * * * * * * * * * * * //

dimensions      [1 0 -1 0 0 0 0];

oriented        oriented;

internalField   nonuniform List<scalar> 
10325
(
0.0084507
-4.88392e-15
0.0084507
4.75515e-15
0.0084507
4.6056e-14
0.0084507
3.69179e-13
0.0084507
3.34409e-12
0.0084507
2.20857e-11
0.00845068
2.81815e-10
0.00845049
4.10456e-10
0.008449
2.8049e-08
0.0084352
-3.1931e-07
0.00834634
1.67552e-06
0.00778084
1.2876e-05
0.00701074
3.06981e-05
0.00687838
0.000583532
0.00829362
0.000432585
0.00757665
0.000417324
0.00684936
0.000469922
0.006206
0.000566546
0.00563936
0.000668048
0.00491554
0.00077227
0.00404719
0.000825537
0.00316413
0.000859073
0.00224937
0.000903273
0.00125452
0.000964403
0.0010339
0.0084507
-6.98099e-15
0.0084507
6.07497e-15
0.0084507
1.0288e-13
0.0084507
3.94134e-13
0.0084507
8.12272e-12
0.0084507
7.42942e-12
0.00845068
7.3397e-10
0.0084505
-5.16906e-09
0.00844909
6.84335e-08
0.00843607
-9.26745e-07
0.00835075
3.19142e-06
0.00779199
2.50747e-05
0.00702111
6.69223e-05
0.00687357
0.00113157
0.00829222
0.00093154
0.0075716
0.000842194
0.00682674
0.000940685
0.00616975
0.00112821
0.00559544
0.00132532
0.00488695
0.00152145
0.00404025
0.0016217
0.00317181
0.00169995
0.00225919
0.001802
0.00125876
0.0019327
0.00207066
0.0084507
-2.64797e-15
0.0084507
-2.52072e-15
0.0084507
2.40096e-13
0.0084507
-7.50349e-13
0.0084507
2.2012e-11
0.0084507
-2.30984e-10
0.00845068
1.69968e-09
0.00845051
-1.02525e-08
0.00844944
9.43586e-08
0.00843745
-9.49458e-07
0.00836004
3.66144e-06
0.00782117
3.2879e-05
0.00704676
9.01374e-05
0.0069097
0.00156432
0.00836505
0.00165461
0.00762113
0.00131384
0.00686789
0.00141541
0.00618204
0.00168129
0.00562786
0.00193996
0.00495271
0.0022173
0.00411812
0.00239659
0.00324134
0.0025456
0.00231066
0.00271735
0.00128525
0.00292759
0.0031368
0.0084507
2.89693e-15
0.0084507
5.48642e-15
0.0084507
3.67105e-13
0.0084507
-1.20802e-13
0.0084507
3.09491e-11
0.0084507
-1.78604e-10
0.00845069
1.89983e-09
0.00845053
-1.95377e-09
0.00844968
7.9234e-08
0.00843845
-2.21232e-07
0.00837078
3.51601e-06
0.00786216
3.43935e-05
0.00703582
9.1536e-05
0.00695496
0.00175751
0.00866732
0.00267446
0.00782984
0.0019163
0.00705766
0.00191598
0.0063248
0.0022266
0.00573586
0.00254312
0.00504263
0.00290079
0.00420438
0.00315685
0.00332899
0.00337633
0.00238124
0.00363734
0.00134178
0.00393073
0.00425483
0.0084507
3.13484e-15
0.0084507
-1.54854e-15
0.0084507
1.56988e-13
0.0084507
7.26404e-13
0.0084507
8.94088e-12
0.0084507
5.85118e-11
0.0084507
6.46371e-10
0.00845056
3.44698e-09
0.00844988
4.93395e-08
0.00843979
1.8682e-07
0.00838108
3.2825e-06
0.00790488
3.22026e-05
0.00700549
9.61961e-05
0.00698853
0.00165995
0.00918178
0.00370339
0.00826253
0.00276651
0.00739009
0.00256794
0.00652675
0.00283939
0.00590361
0.00313859
0.00521615
0.00354108
0.0044028
0.00387342
0.00351037
0.00421475
0.00253125
0.00457959
0.0014261
0.0050011
0.00546149
0.0084507
1.25402e-14
0.0084507
-2.20146e-14
0.0084507
2.47214e-13
0.0084507
-4.97557e-13
0.0084507
7.87209e-12
0.0084507
-7.38984e-12
0.0084507
4.75186e-10
0.00845058
1.39879e-09
0.00845009
4.20843e-08
0.00844141
2.70017e-07
0.00839135
3.00296e-06
0.00795278
3.04411e-05
0.00707066
0.000123509
0.00699296
0.00139906
0.00954188
0.00444025
0.00871699
0.00369701
0.00780784
0.00337157
0.00682081
0.00354569
0.00614945
0.00374102
0.00546651
0.00414278
0.00462385
0.0046062
0.00371399
0.00505386
0.00268598
0.0055562
0.00154015
0.00610438
0.00679239
0.0084507
8.54178e-15
0.0084507
-2.70014e-14
0.0084507
2.22548e-13
0.0084507
-1.61635e-12
0.0084507
2.67099e-12
0.0084507
-5.34938e-11
0.0084507
8.61875e-10
0.00845059
1.93677e-09
0.00845023
3.98199e-08
0.00844276
3.18397e-07
0.00840165
2.74121e-06
0.00801167
2.79956e-05
0.00712448
0.000153501
0.00693423
0.00114629
0.00969133
0.00482132
0.00909771
0.00450315
0.00818706
0.00417984
0.00717413
0.00431373
0.00649958
0.00436935
0.00582864
0.00473917
0.00501706
0.00531188
0.00409559
0.00590392
0.00303929
0.00655759
0.00180386
0.00731414
0.00839571
0.0084507
-2.56278e-16
0.0084507
-3.62297e-15
0.0084507
-2.82927e-13
0.0084507
-4.52756e-13
0.0084507
-3.01096e-11
0.0084507
-7.44504e-11
0.0084507
5.88515e-10
0.0084506
2.92015e-09
0.00845035
2.82206e-08
0.00844403
3.00467e-07
0.00841063
2.28429e-06
0.00807673
1.03566e-05
0.00720523
0.000180818
0.00685861
0.000962284
0.00965338
0.00487262
0.00936065
0.00502294
0.00859724
0.00482575
0.00765302
0.0050083
0.00694579
0.00506232
0.00629399
0.00534174
0.00543674
0.00606793
0.00446838
0.00677617
0.00333948
0.00762389
0.00193604
0.00866268
0.0102024
0.0084507
2.35922e-16
0.0084507
5.14631e-14
0.0084507
-2.92279e-13
0.0084507
3.0003e-12
0.0084507
-6.04272e-12
0.0084507
1.71671e-12
0.0084507
2.17971e-10
0.00845061
3.55827e-09
0.00845044
1.585e-08
0.00844503
3.04147e-07
0.00841861
1.5833e-06
0.00815209
-1.31229e-05
0.00733402
0.000181249
0.00683683
0.000848909
0.00944824
0.0047733
0.00958454
0.00517339
0.00905457
0.00522267
0.00824352
0.00558611
0.00755114
0.00577617
0.00684762
0.00605272
0.00606323
0.00677918
0.00510175
0.00768186
0.00394973
0.0087258
0.00273601
0.0098549
0.0128743
0.0084507
-1.30904e-15
0.0084507
6.41728e-14
0.0084507
-6.50118e-14
0.0084507
1.66033e-12
0.0084507
1.6491e-11
0.0084507
9.92324e-11
0.0084507
-7.57677e-11
0.00845063
4.73294e-09
0.00845044
1.54308e-09
0.00844686
2.67509e-07
0.00841822
1.43749e-06
0.00820276
-4.10996e-06
0.00743682
0.00015892
0.00688584
0.000763775
0.00888229
0.00477306
0.0096508
0.00516214
0.00931857
0.00538043
0.00882343
0.00597231
0.00817021
0.00648792
0.00750253
0.00681427
0.00660026
0.00764637
0.005556
0.00862177
0.00448352
0.00972484
0.00284396
0.011426
0.01607
0.0084507
2.05744e-15
0.0084507
-1.63969e-15
0.0084507
3.22654e-13
0.0084507
5.31243e-13
0.0084507
2.74535e-11
0.0084507
2.1489e-10
0.0084507
-7.5468e-10
0.00845067
5.48726e-09
0.00845039
-3.53194e-08
0.00844798
2.21906e-07
0.00842718
-7.38877e-07
0.0082599
1.47311e-05
0.00754517
0.000144831
0.00676924
0.000688899
0.0082805
0.00473785
0.00956583
0.00522417
0.00934488
0.00544086
0.00892089
0.00633909
0.00837458
0.00700438
0.00789162
0.00744611
0.00706935
0.008466
0.00639271
0.00922069
0.00590787
0.0102915
0.00570867
0.0118976
0.0134548
0.0092296
0.0084507
-1.92915e-15
0.0084507
9.02653e-16
0.0084507
1.35646e-13
0.0084507
1.65451e-12
0.0084507
1.15032e-11
0.0084507
1.44539e-10
0.0084507
-4.2686e-10
0.00845068
4.8069e-09
0.00845046
-4.59954e-08
0.00844874
2.65618e-07
0.00843456
-2.06424e-06
0.00833506
1.31905e-05
0.00774187
0.000116288
0.00683745
0.000533038
0.00771997
0.00430994
0.00943709
0.00562049
0.0092638
0.00556015
0.00892552
0.00656944
0.0085718
0.00730392
0.00825285
0.00791255
0.00773993
0.00900009
0.00737152
0.00951796
0.0073208
0.0102698
0.00787848
0.0109908
0.0117997
0.010229
0.0084507
-3.22599e-15
0.0084507
6.16458e-15
0.0084507
2.52262e-14
0.0084507
1.12254e-12
0.0084507
3.99252e-12
0.0084507
5.15937e-11
0.0084507
1.46889e-10
0.00845069
2.17629e-09
0.00845053
-3.21111e-09
0.00844967
1.78098e-07
0.0084382
-4.94499e-07
0.00837368
8.52735e-06
0.00789006
8.11817e-05
0.00713773
0.000381784
0.00772819
0.00354569
0.00956161
0.00656262
0.00904902
0.00586878
0.00892455
0.006547
0.00872395
0.00745407
0.0084798
0.00813237
0.00829642
0.00917146
0.00819256
0.00957063
0.00838534
0.0100424
0.00891846
0.010326
0.0105268
0.011092
0.0084507
-8.21012e-17
0.0084507
1.56404e-15
0.0084507
2.08276e-14
0.0084507
4.23949e-13
0.0084507
5.16308e-13
0.0084507
2.29768e-11
0.0084507
3.50423e-11
0.0084507
8.86097e-10
0.0084506
5.82447e-09
0.00845009
8.85948e-08
0.00844119
5.7937e-07
0.00839622
5.75085e-06
0.007997
5.77593e-05
0.00720672
0.000331502
0.00765264
0.00263658
0.0101172
0.0073534
0.00947143
0.00656181
0.00910678
0.00685816
0.00886678
0.00766297
0.0087107
0.00826094
0.00873273
0.0091472
0.00882153
0.00943362
0.00906532
0.00976792
0.00951748
0.00977798
0.0097188
0.0109696
0.0084507
-4.27338e-16
0.0084507
3.58546e-15
0.0084507
3.32554e-14
0.0084507
-1.29047e-13
0.0084507
5.32499e-13
0.0084507
-4.71504e-12
0.0084507
2.11704e-11
0.0084507
9.1587e-10
0.0084506
5.74791e-09
0.00845043
4.47363e-08
0.00844399
1.37009e-07
0.0084158
3.93029e-06
0.00813344
1.63465e-05
0.0073728
0.000297114
0.00747048
0.00193104
0.0103092
0.00760398
0.00991879
0.0073583
0.00935817
0.007403
0.0091292
0.00792103
0.00898993
0.00840387
0.00904316
0.00909376
0.00918929
0.0092642
0.00946731
0.00947453
0.00989811
0.00927861
0.00927261
0.010769
0.0084507
-9.28348e-17
0.0084507
3.72404e-15
0.0084507
-5.85089e-14
0.0084507
2.4558e-13
0.0084507
-3.52856e-13
0.0084507
1.36267e-11
0.0084507
2.55458e-10
0.0084507
-3.08306e-10
0.00845064
1.00568e-08
0.00845032
9.69527e-09
0.00844707
8.36715e-08
0.00842105
3.44754e-06
0.00822937
5.11434e-06
0.007511
0.000245737
0.00730965
0.00139119
0.00973775
0.00713395
0.010399
0.00806846
0.00987046
0.00799528
0.00953366
0.00822588
0.00932557
0.00856157
0.00935757
0.00899441
0.00950519
0.00908376
0.00977547
0.00921851
0.0101231
0.00886555
0.00887969
0.0107737
0.0084507
2.39256e-16
0.0084507
1.08404e-15
0.0084507
-7.00144e-14
0.0084507
1.7956e-13
0.0084507
-8.04204e-13
0.0084507
6.98888e-12
0.0084507
1.73311e-10
0.0084507
-2.01448e-10
0.00845068
7.48089e-09
0.00845044
2.19038e-09
0.00844943
2.97698e-07
0.00843332
2.0554e-06
0.00831294
1.94076e-05
0.00769755
0.00017233
0.00708849
0.000947846
0.00883311
0.00602286
0.0105904
0.00866196
0.0103543
0.00832231
0.0100807
0.00838679
0.00982576
0.0086552
0.00977275
0.00889941
0.00984893
0.00889549
0.010076
0.00895944
0.0103639
0.00851429
0.00854013
0.0108587
0.0084507
-5.04154e-18
0.0084507
-2.64952e-16
0.0084507
2.90948e-15
0.0084507
7.57559e-16
0.0084507
5.69551e-13
0.0084507
4.14436e-13
0.0084507
3.11808e-11
0.0084507
2.20647e-10
0.0084507
1.52651e-09
0.00845054
1.51983e-08
0.00845003
1.4434e-07
0.00844043
1.28379e-06
0.00839227
9.89859e-06
0.0080207
-2.90483e-05
0.00723311
0.000741678
0.00830894
0.00435484
0.0110107
0.00904353
0.0107652
0.00857604
0.0104953
0.00847196
0.0103239
0.00862753
0.0102535
0.00884064
0.0102668
0.00876629
0.0104172
0.00876318
0.0105995
0.00826223
0.00827718
0.0109402
0.0084507
-5.59177e-17
0.0084507
5.4305e-16
0.0084507
2.432e-15
0.0084507
5.79636e-14
0.0084507
3.3571e-13
0.0084507
2.22965e-12
0.0084507
5.99948e-11
0.0084507
3.39154e-10
0.0084507
-4.88802e-10
0.00845059
1.35103e-08
0.00845041
4.81637e-08
0.00844438
6.92837e-07
0.00840984
4.93131e-06
0.00811926
-7.2544e-05
0.00744904
0.000544068
0.00814189
0.00288499
0.0112879
0.00867589
0.0113923
0.00903116
0.0110922
0.00877452
0.0108712
0.00870116
0.0107764
0.0087963
0.0107434
0.00867802
0.0108176
0.00862655
0.0108952
0.0081031
0.00809009
0.0110971
0.0084507
-2.28496e-17
0.0084507
5.18032e-16
0.0084507
5.61275e-15
0.0084507
5.24583e-14
0.0084507
6.72246e-14
0.0084507
4.2048e-12
0.0084507
1.34375e-11
0.0084507
1.38216e-10
0.0084507
2.0505e-10
0.00845066
9.99493e-09
0.00845034
3.60812e-08
0.0084478
3.99558e-07
0.00842391
2.87221e-06
0.00822403
2.82662e-05
0.00762147
0.000295476
0.00786657
0.00169121
0.0104158
0.00748186
0.0117737
0.00946485
0.0115869
0.00917681
0.0113122
0.00889177
0.0111473
0.00882296
0.0110615
0.0086406
0.0110924
0.00853279
0.0111238
0.00801681
0.00794846
0.0112628
0.0084507
3.74863e-17
0.0084507
1.30457e-16
0.0084507
3.48774e-15
0.0084507
1.22408e-14
0.0084507
2.35724e-13
0.0084507
1.562e-12
0.0084507
1.97322e-12
0.0084507
7.23698e-11
0.0084507
4.97815e-10
0.0084507
2.30083e-09
0.00845047
3.44973e-08
0.00844986
2.5349e-07
0.00843599
1.70282e-06
0.00837361
1.80488e-05
0.00807805
-6.82553e-05
0.00753851
0.00109012
0.00894919
0.00543002
0.0117282
0.00969998
0.0116728
0.00931554
0.0115192
0.00895797
0.0113936
0.00881048
0.011337
0.00861759
0.0113511
0.00849738
0.0113352
0.00802112
0.00789347
0.0113814
0.0084507
1.88109e-17
0.0084507
-5.15809e-17
0.0084507
1.09431e-15
0.0084507
1.53526e-15
0.0084507
1.07115e-13
0.0084507
-8.16312e-15
0.0084507
7.40861e-12
0.0084507
4.00217e-11
0.0084507
3.7073e-10
0.0084507
-1.46232e-10
0.00845059
2.04358e-08
0.00845026
6.59482e-08
0.00844444
7.65231e-07
0.00839944
9.10732e-06
0.00810207
-0.000137661
0.00752746
0.000702822
0.00853469
0.00359095
0.0117802
0.00917832
0.0120279
0.00960758
0.0119291
0.0091748
0.0117842
0.00894568
0.0116625
0.00871453
0.011604
0.00856995
0.0115256
0.00812335
0.00794043
0.0114905
0.0084507
1.35525e-18
0.0084507
3.78387e-17
0.0084507
2.38172e-16
0.0084507
4.33759e-15
0.0084507
1.95399e-14
0.0084507
-2.82025e-14
0.0084507
2.61441e-12
0.0084507
6.48506e-12
0.0084507
1.26197e-10
0.0084507
3.66849e-10
0.00845067
8.72608e-09
0.00845032
2.04409e-08
0.00845003
5.65007e-07
0.00842083
4.10477e-06
0.00816393
3.24211e-05
0.00753192
0.000374003
0.00814484
0.00209341
0.0110642
0.00770725
0.0124524
0.00996318
0.0122785
0.00959394
0.0121156
0.00917384
0.0119598
0.00890285
0.0118629
0.00871815
0.0117604
0.00828716
0.00805825
0.0116783
0.0084507
-4.60786e-19
0.0084507
1.28207e-17
0.0084507
-1.68051e-17
0.0084507
2.31895e-15
0.0084507
8.59011e-15
0.0084507
3.55865e-14
0.0084507
1.15444e-12
0.0084507
4.3966e-12
0.0084507
7.78078e-11
0.0084507
6.5223e-10
0.0084507
1.63386e-09
0.00845048
3.10011e-08
0.00845005
1.92137e-07
0.00843797
1.65238e-06
0.00838595
1.33243e-05
0.00800351
0.000134934
0.00758083
0.00129499
0.00938309
0.00544437
0.0124039
0.0100476
0.0123708
0.00975918
0.012379
0.00938625
0.0122017
0.00908191
0.012061
0.00885136
0.0119492
0.00844746
0.00818278
0.0118754
0.0084507
2.11419e-18
0.0084507
9.24282e-18
0.0084507
1.73418e-16
0.0084507
-1.25496e-16
0.0084507
1.03349e-14
0.0084507
-2.5197e-14
0.0084507
5.48353e-13
0.0084507
1.46985e-12
0.0084507
1.88326e-11
0.0084507
3.78487e-10
0.00845069
3.6754e-10
0.00845062
1.81622e-08
0.00845001
1.02343e-07
0.00844478
6.65692e-07
0.00840481
8.87747e-06
0.00816874
4.37517e-05
0.00771914
0.000708548
0.00883503
0.00339487
0.0122801
0.00898964
0.0128319
0.0101046
0.0126831
0.00978977
0.0124563
0.00935529
0.0122698
0.00906448
0.0121321
0.00863921
0.0083159
0.0120235
0.0084507
1.38236e-18
0.0084507
3.33392e-18
0.0084507
9.85269e-17
0.0084507
-4.37991e-16
0.0084507
3.95181e-15
0.0084507
7.81935e-15
0.0084507
2.22247e-13
0.0084507
1.25348e-12
0.0084507
3.93846e-12
0.0084507
1.54806e-10
0.0084507
1.25382e-09
0.00845072
3.86313e-09
0.00845027
7.46519e-08
0.00844973
4.29113e-07
0.00843034
3.54862e-06
0.00832362
3.67748e-05
0.00790586
0.000229734
0.00836159
0.00185633
0.0109981
0.00704096
0.0129755
0.0104743
0.0128718
0.0101432
0.0127773
0.00958487
0.0126168
0.00927373
0.0124486
0.00884638
0.00848622
0.0122716
0.0084507
2.98156e-19
0.0084507
2.60209e-18
0.0084507
1.05439e-17
0.0084507
2.0963e-16
0.0084507
5.28169e-16
0.0084507
1.16025e-14
0.0084507
8.76775e-14
0.0084507
3.73463e-13
0.0084507
3.4075e-12
0.0084507
4.27592e-11
0.0084507
5.73709e-10
0.00845069
8.75044e-10
0.00845058
3.48222e-08
0.00844978
1.55646e-07
0.00844308
9.81774e-07
0.0083988
1.50496e-05
0.00813899
3.47105e-05
0.00770877
0.00109706
0.00940883
0.00450681
0.0128836
0.00984921
0.0131595
0.0104137
0.0130266
0.0099804
0.0128247
0.00950354
0.0126249
0.00905943
0.00864976
0.0124368
0.0084507
3.52366e-19
0.0084507
2.92735e-18
0.0084507
-6.47811e-18
0.0084507
1.11402e-16
0.0084507
1.05276e-16
0.0084507
4.91087e-15
0.0084507
2.58963e-14
0.0084507
3.68032e-13
0.0084507
9.77766e-13
0.0084507
2.23412e-11
0.0084507
2.29341e-10
0.0084507
1.98369e-09
0.00845073
6.8132e-09
0.00845005
1.10094e-07
0.00844962
6.61969e-07
0.00842244
4.82691e-06
0.00826086
5.32225e-05
0.00790067
0.000321835
0.00886835
0.00258046
0.0121055
0.00795192
0.0136365
0.0107599
0.013394
0.0104991
0.0132252
0.00976234
0.0129839
0.00931998
0.00884289
0.0127787
0.0084507
-5.69206e-19
0.0084507
-1.0571e-18
0.0084507
-4.06576e-18
0.0084507
3.18484e-17
0.0084507
5.43998e-17
0.0084507
1.54998e-15
0.0084507
1.50281e-14
0.0084507
1.00727e-13
0.0084507
-5.84188e-13
0.0084507
1.18123e-11
0.0084507
6.7406e-11
0.0084507
9.70993e-10
0.00845069
1.40699e-09
0.00845055
4.14172e-08
0.00844958
2.21281e-07
0.00844139
7.79737e-07
0.00839222
2.07987e-05
0.00813889
1.90894e-05
0.00789521
0.00146386
0.00989997
0.00533757
0.0133864
0.0102792
0.013569
0.0107132
0.0134187
0.0101729
0.0132038
0.00956896
0.00907331
0.012991
0.0084507
1.35525e-19
0.0084507
-6.77626e-19
0.0084507
5.14996e-19
0.0084507
6.31548e-18
0.0084507
-2.4259e-17
0.0084507
5.4221e-16
0.0084507
6.06638e-15
0.0084507
2.34621e-14
0.0084507
3.95948e-13
0.0084507
1.34479e-12
0.0084507
3.57362e-11
0.0084507
1.71171e-10
0.00845069
2.36747e-09
0.00845067
1.56047e-08
0.00845017
1.44426e-07
0.00844971
8.41678e-07
0.00841752
4.91246e-06
0.00822046
6.58333e-05
0.00791846
0.000446679
0.00922249
0.00307797
0.0127316
0.00832089
0.0140647
0.011028
0.013794
0.0106886
0.0136228
0.00982216
0.0093237
0.0133741
0.0084507
-2.1684e-19
0.0084507
-1.89735e-19
0.0084507
-1.35525e-19
0.0084507
-7.04731e-19
0.0084507
1.73472e-17
0.0084507
2.79101e-16
0.0084507
1.40152e-15
0.0084507
1.93399e-14
0.0084507
9.79132e-14
0.0084507
-5.43255e-13
0.0084507
1.32231e-11
0.0084507
3.57839e-11
0.0084507
7.55992e-10
0.00845068
4.82584e-09
0.00845054
4.12114e-08
0.00844949
2.45258e-07
0.00844032
-4.06489e-07
0.0083896
2.38999e-05
0.00815165
3.39635e-05
0.00816925
0.00164524
0.0104239
0.00578654
0.0138279
0.0104769
0.0140051
0.0109049
0.0138332
0.0102501
0.00958391
0.0136129
0.0084507
-1.6263e-19
0.0084507
-2.71051e-19
0.0084507
2.1684e-19
0.0084507
5.42101e-19
0.0084507
4.52654e-18
0.0084507
1.30917e-16
0.0084507
5.17734e-16
0.0084507
1.2235e-14
0.0084507
1.69795e-14
0.0084507
5.67954e-13
0.0084507
5.14945e-12
0.0084507
3.86148e-11
0.0084507
3.98118e-10
0.0084507
2.1298e-09
0.00845054
3.04335e-08
0.00845086
1.67385e-07
0.00844883
9.75184e-07
0.00841655
3.45306e-06
0.00822264
7.44461e-05
0.00785658
0.000565831
0.00941973
0.00321184
0.0131275
0.00836441
0.0144143
0.0112102
0.0142129
0.0106822
0.0099444
0.0139811
0.0084507
-2.71051e-20
0.0084507
-1.6263e-19
0.0084507
-4.33681e-19
0.0084507
-1.0571e-18
0.0084507
5.47522e-18
0.0084507
7.23434e-17
0.0084507
3.60985e-16
0.0084507
4.5073e-15
0.0084507
2.59781e-14
0.0084507
-3.04886e-15
0.0084507
2.48978e-12
0.0084507
1.42745e-11
0.0084507
1.03923e-10
0.0084507
5.61178e-10
0.00845069
4.74513e-09
0.00845055
6.0267e-08
0.00844952
3.27201e-07
0.00844062
-2.72282e-06
0.00839755
2.41163e-05
0.00819693
7.06996e-05
0.00830147
0.00168868
0.0106504
0.00578504
0.0140816
0.0104914
0.0144189
0.0109221
0.0104871
0.0140979
0.0084507
8.13152e-20
0.0084507
8.13152e-20
0.0084507
-4.06576e-19
0.0084507
-1.89735e-19
0.0084507
7.86047e-19
0.0084507
2.51264e-17
0.0084507
8.43238e-17
0.0084507
1.10938e-15
0.0084507
9.99152e-15
0.0084507
-1.18143e-13
0.0084507
8.38138e-13
0.0084507
4.57225e-12
0.0084507
1.00935e-11
0.0084507
3.20968e-10
0.0084507
-3.88965e-09
0.00845066
2.12471e-08
0.00845085
1.58901e-07
0.00844661
7.57151e-07
0.0084197
-3.69767e-06
0.00825552
7.81148e-05
0.00788932
0.00063074
0.00945057
0.00317417
0.0130587
0.0082773
0.0145515
0.0111906
0.0108309
0.0143442
0.0084507
3.79471e-19
0.0084507
6.23416e-19
0.0084507
3.79471e-19
0.0084507
4.81482e-35
0.0084507
7.31836e-19
0.0084507
6.28837e-18
0.0084507
3.69984e-17
0.0084507
2.29498e-16
0.0084507
2.82904e-15
0.0084507
9.11619e-15
0.0084507
1.9266e-13
0.0084507
1.11579e-12
0.0084507
7.00172e-12
0.0084507
2.89852e-11
0.0084507
5.20187e-10
0.0084507
5.04249e-09
0.00845056
5.29727e-08
0.0084497
1.19213e-07
0.00844129
-9.95284e-06
0.00840718
2.53321e-05
0.00826051
7.71629e-05
0.00836929
0.00169202
0.0106508
0.00555195
0.0141774
0.0102432
0.0111463
0.0146865
0.0084507
-2.1684e-19
0.0084507
-8.67362e-19
0.0084507
-1.54499e-18
0.0084507
-1.78893e-18
0.0084507
-1.27394e-18
0.0084507
1.13841e-18
0.0084507
5.66496e-18
0.0084507
1.05601e-16
0.0084507
8.02879e-16
0.0084507
-1.7891e-15
0.0084507
6.336e-14
0.0084507
2.39059e-13
0.0084507
1.64991e-13
0.0084507
2.43919e-11
0.0084507
3.70183e-11
0.0084507
1.05446e-09
0.00845075
1.13158e-08
0.0084507
9.15274e-08
0.00844143
4.33039e-07
0.00841644
1.90681e-06
0.00829143
7.36738e-05
0.00801557
0.000618361
0.0094895
0.00297878
0.0128829
0.00799748
0.0113214
0.0146236
0.0084507
-2.71051e-19
0.0084507
-7.58942e-19
0.0084507
-1.00289e-18
0.0084507
-1.00289e-18
0.0084507
-1.30104e-18
0.0084507
-1.30104e-18
0.0084507
2.54788e-18
0.0084507
3.82723e-17
0.0084507
6.80337e-17
0.0084507
1.37157e-15
0.0084507
1.3445e-14
0.0084507
3.59427e-14
0.0084507
1.10047e-12
0.0084507
8.98555e-12
0.0084507
7.72964e-11
0.0084507
5.40409e-10
0.0084507
1.88902e-09
0.00845054
3.13437e-08
0.00845002
-4.14158e-08
0.00844274
-3.98849e-06
0.00841708
2.30895e-05
0.00830546
8.98047e-05
0.00837624
0.00158593
0.0105375
0.00514051
0.0100889
0.0141398
0.0084507
-2.98156e-19
0.0084507
-2.43945e-19
0.0084507
5.14996e-19
0.0084507
1.02999e-18
0.0084507
7.31836e-19
0.0084507
1.6263e-19
0.0084507
3.79471e-19
0.0084507
1.00289e-17
0.0084507
8.54893e-17
0.0084507
8.97394e-16
0.0084507
8.24267e-15
0.0084507
4.28352e-14
0.0084507
5.53741e-13
0.0084507
1.8385e-12
0.0084507
2.89225e-11
0.0084507
1.88774e-10
0.0084507
1.22969e-09
0.00845066
9.01274e-09
0.00845013
8.34529e-08
0.00844854
9.21612e-07
0.00842814
-2.02849e-06
0.00833307
6.40892e-05
0.00809165
0.000537414
0.00942339
0.00267462
0.00773613
0.0125302
0.0084507
1.6263e-19
0.0084507
6.77626e-19
0.0084507
1.73472e-18
0.0084507
1.73472e-18
0.0084507
1.43657e-18
0.0084507
1.54499e-18
0.0084507
-1.5992e-18
0.0084507
2.79182e-18
0.0084507
4.59702e-17
0.0084507
5.06648e-16
0.0084507
4.52026e-15
0.0084507
3.01279e-14
0.0084507
3.24864e-13
0.0084507
7.11638e-13
0.0084507
7.47867e-12
0.0084507
8.00163e-11
0.0084507
4.98796e-10
0.00845069
-2.26003e-09
0.00845056
1.71641e-08
0.00844994
3.74222e-07
0.00844312
-7.18415e-06
0.00841218
2.03607e-05
0.00828469
7.90542e-05
0.00822833
0.00144397
0.0048383
0.0103688
0.0084507
3.25261e-19
0.0084507
1.13841e-18
0.0084507
1.0842e-18
0.0084507
8.40257e-19
0.0084507
2.98156e-19
0.0084507
-2.1684e-19
0.0084507
-1.38236e-18
0.0084507
4.33681e-19
0.0084507
1.48536e-17
0.0084507
1.96566e-16
0.0084507
1.66436e-15
0.0084507
1.6229e-14
0.0084507
1.28494e-13
0.0084507
2.38788e-13
0.0084507
4.16025e-12
0.0084507
5.63416e-12
0.0084507
1.47112e-10
0.0084507
-6.10809e-10
0.00845068
1.54067e-08
0.00845096
1.42119e-07
0.00844388
4.18756e-07
0.00841986
3.82188e-06
0.00831078
5.9954e-05
0.00805478
0.000475915
0.00253506
0.00928037
0.0084507
-2.1684e-19
0.0084507
-3.25261e-19
0.0084507
-4.87891e-19
0.0084507
-4.33681e-19
0.0084507
-5.96311e-19
0.0084507
-2.98156e-19
0.0084507
7.58942e-19
0.0084507
1.81604e-18
0.0084507
9.56808e-18
0.0084507
1.53415e-17
0.0084507
6.50738e-16
0.0084507
3.01701e-15
0.0084507
3.77966e-14
0.0084507
1.42364e-13
0.0084507
1.41762e-12
0.0084507
-1.44413e-11
0.0084507
6.71558e-11
0.0084507
5.59047e-10
0.00845069
3.71153e-09
0.00845057
7.33243e-08
0.00844965
4.23751e-08
0.0084422
-8.91949e-07
0.00840632
1.93167e-05
0.0082369
6.26287e-05
0.00136922
0.00810991
0.0084507
6.50521e-19
0.0084507
2.1684e-19
0.0084507
2.1684e-19
0.0084507
2.71051e-19
0.0084507
1.43657e-18
0.0084507
2.1684e-18
0.0084507
2.03288e-18
0.0084507
2.95445e-18
0.0084507
7.91468e-18
0.0084507
1.85399e-17
0.0084507
3.0317e-16
0.0084507
2.5495e-16
0.0084507
1.53531e-14
0.0084507
1.57767e-14
0.0084507
7.23539e-13
0.0084507
4.49201e-12
0.0084507
-1.63947e-12
0.0084507
3.90335e-10
0.00845071
2.51487e-09
0.00845071
1.3665e-08
0.00844993
1.44553e-07
0.00844852
8.58523e-07
0.00841536
3.79425e-06
0.00825061
6.97029e-05
0.000254251
0.00817551
0.0084507
2.43945e-19
0.0084507
5.69206e-19
0.0084507
8.67362e-19
0.0084507
4.33681e-19
0.0084507
7.58942e-19
0.0084507
8.40257e-19
0.0084507
9.21572e-19
0.0084507
1.54499e-18
0.0084507
1.95156e-18
0.0084507
8.75493e-18
0.0084507
9.14253e-17
0.0084507
3.90963e-16
0.0084507
4.48811e-15
0.0084507
1.48818e-15
0.0084507
3.74847e-13
0.0084507
2.08181e-12
0.0084507
4.34273e-12
0.0084507
2.47922e-10
0.0084507
1.54469e-09
0.00845071
1.2513e-09
0.0084505
5.62723e-08
0.00844963
1.89029e-07
0.00844186
-1.37423e-06
0.00838649
2.75645e-05
-0.000124596
0.0081789
0.0084507
-7.86047e-19
0.0084507
-1.0842e-18
0.0084507
-1.27394e-18
0.0084507
-1.0842e-18
0.0084507
-1.32815e-18
0.0084507
-9.75782e-19
0.0084507
-1.21973e-18
0.0084507
-1.16552e-18
0.0084507
-1.11131e-18
0.0084507
6.50521e-19
0.0084507
1.68051e-17
0.0084507
3.13633e-16
0.0084507
9.66946e-16
0.0084507
2.07842e-14
0.0084507
1.39505e-13
0.0084507
5.13518e-13
0.0084507
1.11713e-11
0.0084507
5.3848e-11
0.0084507
5.41167e-10
0.0084507
1.21457e-09
0.00845069
1.33809e-08
0.00844993
7.23012e-08
0.0084513
9.22149e-07
0.00841137
8.7775e-06
5.06299e-05
0.00806852
0.0084507
-2.1684e-19
0.0084507
-4.06576e-19
0.0084507
-7.31836e-19
0.0084507
-1.00289e-18
0.0084507
-1.35525e-18
0.0084507
-1.78893e-18
0.0084507
-1.97867e-18
0.0084507
-2.11419e-18
0.0084507
-1.57209e-18
0.0084507
-1.0571e-18
0.0084507
6.451e-18
0.0084507
1.18503e-16
0.0084507
9.37076e-16
0.0084507
4.33171e-15
0.0084507
4.95284e-14
0.0084507
-2.72319e-15
0.0084507
1.93205e-12
0.0084507
3.10708e-12
0.0084507
1.47417e-10
0.00845071
6.47881e-10
0.00845069
9.50389e-10
0.00845029
4.43426e-08
0.00845002
2.56323e-07
0.00843185
1.52704e-06
1.90728e-05
0.00835707
0.0084507
2.43945e-19
0.0084507
2.98156e-19
0.0084507
-1.80556e-35
0.0084507
5.96311e-19
0.0084507
1.51788e-18
0.0084507
1.81604e-18
0.0084507
1.11131e-18
0.0084507
-2.98156e-19
0.0084507
-8.40257e-19
0.0084507
-3.2255e-18
0.0084507
1.24683e-18
0.0084507
4.68104e-17
0.0084507
4.49293e-16
0.0084507
4.36744e-16
0.0084507
1.89353e-14
0.0084507
1.64715e-14
0.0084507
1.14069e-12
0.0084507
6.95558e-12
0.0084507
2.27883e-11
0.0084507
3.81056e-10
0.00845069
-4.35309e-10
0.00845059
1.19126e-08
0.00844982
1.21757e-07
0.00844285
-4.17645e-07
1.40498e-05
0.00839111
0.0084507
2.1684e-19
0.0084507
5.42101e-19
0.0084507
3.79471e-19
0.0084507
8.67362e-19
0.0084507
1.84314e-18
0.0084507
2.08709e-18
0.0084507
1.51788e-18
0.0084507
1.35525e-19
0.0084507
-7.04731e-19
0.0084507
-2.05998e-18
0.0084507
-1.00289e-18
0.0084507
9.08019e-18
0.0084507
6.27753e-17
0.0084507
8.70614e-16
0.0084507
6.63328e-15
0.0084507
3.81041e-14
0.0084507
4.4361e-13
0.0084507
5.83381e-12
0.0084507
9.1763e-12
0.0084507
3.35136e-10
0.0084507
1.2871e-09
0.00845056
2.21986e-08
0.00845081
1.16176e-07
0.00844912
5.34792e-07
5.7229e-06
0.00842257
0.0084507
-2.71051e-20
0.0084507
-1.89735e-19
0.0084507
8.13152e-19
0.0084507
-7.58942e-19
0.0084507
-2.11419e-18
0.0084507
-2.95445e-18
0.0084507
-3.17129e-18
0.0084507
-2.79182e-18
0.0084507
-2.73761e-18
0.0084507
-2.71051e-18
0.0084507
-2.54788e-18
0.0084507
3.17129e-18
0.0084507
5.82488e-17
0.0084507
4.22053e-16
0.0084507
1.69721e-15
0.0084507
1.3066e-14
0.0084507
1.65823e-13
0.0084507
1.7978e-12
0.0084507
9.09541e-12
0.0084507
7.56049e-11
0.0084507
9.67361e-10
0.00845071
6.2742e-09
0.00845042
6.07167e-08
0.00845003
4.33575e-08
1.39912e-06
0.00843732
0.0084507
-3.52366e-19
0.0084507
-1.0842e-18
0.0084507
-4.87891e-19
0.0084507
-2.6563e-18
0.0084507
-3.55076e-18
0.0084507
-3.93023e-18
0.0084507
-3.38813e-18
0.0084507
-2.73761e-18
0.0084507
-2.30393e-18
0.0084507
-1.57209e-18
0.0084507
-5.69206e-19
0.0084507
2.90024e-18
0.0084507
6.966e-18
0.0084507
1.73933e-16
0.0084507
1.11131e-17
0.0084507
-2.97099e-16
0.0084507
3.69354e-14
0.0084507
3.18103e-13
0.0084507
5.38044e-12
0.0084507
-2.76747e-12
0.0084507
4.79473e-10
0.0084507
-2.18929e-10
0.00845057
1.60229e-08
0.0084498
-1.7687e-08
-2.13419e-07
0.00844026
0.0084507
0.0084507
0.0084507
0.0084507
0.0084507
0.0084507
0.0084507
0.0084507
0.0084507
0.0084507
0.0084507
0.0084507
0.0084507
0.0084507
0.0084507
0.0084507
0.0084507
0.0084507
0.0084507
0.0084507
0.0084507
0.00845068
0.00845061
0.00844949
0.00843838
0.00497897
0.00386172
0.00224305
0.0016131
0.00100821
0.00106513
-0.000301842
0.0013722
-0.000828236
0.000538589
-0.00120293
0.00035572
-0.00141959
0.000252031
-0.00151688
0.000129015
-0.00157878
0.000111544
-0.00161557
0.0001165
-0.00162625
9.79436e-05
-0.00157354
3.75443e-05
-0.00143384
-3.66183e-05
-0.00120708
-0.000117289
-0.000899201
-0.00018035
-0.000491005
-0.000281407
1.30906e-05
-0.000371958
0.000553593
-0.000421149
0.00111523
-0.000449974
0.00170042
-0.000463065
0.00227004
-0.000456698
0.00280163
-0.000425296
0.00329652
-0.000392775
0.00375145
-0.000358762
0.00416985
-0.000323106
0.00457715
-0.000300406
0.00498584
-0.00028767
0.00539657
-0.000278106
0.00580939
-0.000270043
0.00622499
-0.000262573
0.00664677
-0.000256413
0.00707685
-0.000252637
0.00751451
-0.000251016
0.00795736
-0.00024937
0.00840591
-0.00024952
0.00885749
-0.00025212
0.00930728
-0.000256824
0.00975247
-0.000259384
0.0101892
-0.000256806
0.0106113
-0.000249828
0.0110133
-0.000239422
0.0113918
-0.000226154
0.011742
-0.000210386
0.0120609
-0.00019414
0.0123515
-0.000179004
0.0126191
-0.000165757
0.0128633
-0.000153564
0.0130837
-0.000141513
0.0132797
-0.000128766
0.013451
-0.000115518
0.0135973
-0.00010159
0.013719
-8.69464e-05
0.0138172
-7.23737e-05
0.0138943
-5.84592e-05
0.0139552
-4.58156e-05
0.014002
-3.51309e-05
0.0140358
-2.67882e-05
0.0140549
-2.03729e-05
0.0140537
-1.54188e-05
0.0140231
-1.2401e-05
0.0139373
-9.25791e-06
0.0137402
-6.82773e-06
0.0133039
-5.96382e-06
0.0123434
-6.22325e-06
0.0102829
-6.58222e-06
0.00641072
-5.66775e-06
0.00234307
-2.80619e-06
0.000469398
-6.06869e-07
5.73661e-05
-7.17635e-08
6.36118e-06
-7.40739e-09
6.97291e-07
-7.88109e-10
7.63304e-08
-8.36363e-11
8.3554e-09
-8.91509e-12
9.14488e-10
-9.48675e-13
1.00091e-10
-1.01213e-13
1.09545e-11
-1.07957e-14
1.1989e-12
-1.1553e-15
1.31203e-13
-1.27258e-16
1.43532e-14