/*--------------------------------*- C++ -*----------------------------------*\
| =========                 |                                                 |
| \\      /  F ield         | OpenFOAM: The Open Source CFD Toolbox           |
|  \\    /   O peration     | Version:  v2106                                 |
|   \\  /    A nd           | Website:  www.openfoam.com                      |
|    \\/     M anipulation  |                                                 |
\*---------------------------------------------------------------------------*/
FoamFile
{
    version     2.0;
    format      ascii;
    arch        "LSB;label=32;scalar=64";
    class       volScalarField;
    location    "1";
    object      T;
}
// * * * * * * * * * * * * * * * * * * * * * * * * * * * * * * * * * * * * * //

dimensions      [0 0 0 1 0 0 0];

internalField   nonuniform List<scalar> 
5250
(
1
1
1
1
1
1
1.00001
1.00007
1.00058
1.00464
1.03919
1.23519
1.80204
2.87981
2.37254
2.35837
2.39699
2.43289
2.40422
2.40321
2.43208
2.44357
2.39899
2.25056
2.14353
1
1
1
1
1
1
1.00001
1.00006
1.00056
1.00446
1.03774
1.22962
1.78946
2.87546
2.36964
2.34827
2.38613
2.42538
2.39889
2.39917
2.4298
2.44163
2.39736
2.24935
2.1414
1
1
1
1
1
1
1.00001
1.00006
1.00051
1.00409
1.03483
1.21736
1.7636
2.87348
2.36419
2.3268
2.36349
2.40952
2.38689
2.3898
2.42298
2.43524
2.39161
2.24413
2.13462
1
1
1
1
1
1
1.00001
1.00005
1.00042
1.00355
1.03107
1.20057
1.72924
2.88904
2.36303
2.29992
2.3318
2.38659
2.37276
2.37935
2.41594
2.42964
2.3885
2.24326
2.12782
1
1
1
1
1
1
1
1.00004
1.00034
1.00295
1.02701
1.18247
1.68775
2.91435
2.37538
2.27114
2.29103
2.35565
2.35438
2.36744
2.40776
2.42226
2.38394
2.24169
2.11833
1
1
1
1
1
1
1
1.00003
1.00029
1.00253
1.02332
1.16429
1.64061
2.91785
2.40816
2.27637
2.27665
2.3324
2.33938
2.35827
2.39915
2.41441
2.37889
2.2404
2.10524
1
1
1
1
1
1
1
1.00003
1.00025
1.00218
1.01978
1.14392
1.58758
2.88134
2.44921
2.30435
2.28902
2.3359
2.33816
2.3509
2.38507
2.4015
2.36969
2.23723
2.08839
1
1
1
1
1
1
1
1.00002
1.00021
1.00181
1.01641
1.12368
1.52988
2.80508
2.48626
2.35316
2.32437
2.36082
2.34959
2.3528
2.37203
2.38815
2.35787
2.23146
2.05789
1
1
1
1
1
1
1
1.00002
1.00017
1.00149
1.01365
1.10512
1.46812
2.69619
2.52701
2.39473
2.38276
2.41215
2.38827
2.35726
2.3598
2.36101
2.33425
2.22124
2.01524
1
1
1
1
1
1
1
1.00001
1.00014
1.00129
1.01092
1.08338
1.40528
2.57409
2.56284
2.39115
2.39912
2.42131
2.40404
2.36105
2.34219
2.33947
2.30716
2.20056
1.89937
1
1
1
1
1
1
1
1.00001
1.00011
1.00094
1.00775
1.06203
1.33645
2.3348
2.62941
2.35452
2.37519
2.40079
2.4031
2.36026
2.32062
2.30801
2.25102
2.09956
1.7088
1
1
1
1
1
1
1
1.00001
1.00008
1.00069
1.00552
1.04467
1.25969
1.934
2.77761
2.30027
2.31625
2.35241
2.3858
2.34779
2.29671
2.26924
2.21916
2.11199
1.67121
1
1
1
1
1
1
1
1.00001
1.00005
1.00042
1.00347
1.03111
1.20162
1.73854
2.82502
2.28298
2.27894
2.30105
2.34095
2.32882
2.28926
2.24435
2.18703
2.10231
1.73136
1
1
1
1
1
1
1
1
1.00003
1.00026
1.00231
1.02205
1.15671
1.61729
2.80806
2.28126
2.22996
2.23975
2.2724
2.28662
2.2641
2.22375
2.16872
2.09221
1.82616
1
1
1
1
1
1
1
1
1.00002
1.00021
1.00174
1.01582
1.11854
1.5037
2.71701
2.31336
2.18882
2.1908
2.20082
2.22454
2.21897
2.19445
2.1497
2.08288
1.89325
1
1
1
1
1
1
1
1
1.00002
1.00013
1.00124
1.0105
1.07879
1.39012
2.55442
2.42788
2.13975
2.13566
2.14606
2.16638
2.17219
2.15806
2.12346
2.07059
1.9316
1
1
1
1
1
1
1
1
1.00001
1.00007
1.00065
1.00524
1.04515
1.28
2.2046
2.61099
2.161
2.09707
2.10278
2.11642
2.13329
2.127
2.10074
2.05835
1.9505
1
1
1
1
1
1
1
1
1
1.00004
1.00036
1.00306
1.02788
1.18707
1.71477
2.7721
2.21406
2.12085
2.11182
2.11628
2.11351
2.10453
2.07996
2.0451
1.96153
1
1
1
1
1
1
1
1
1
1.00002
1.00022
1.00191
1.01672
1.12344
1.52752
2.70785
2.30264
2.14612
2.10347
2.10686
2.10234
2.09088
2.06616
2.03512
1.97173
1
1
1
1
1
1
1
1
1
1.00002
1.00013
1.00107
1.00845
1.06804
1.37689
2.53593
2.44859
2.14546
2.06736
2.07144
2.07855
2.07389
2.05512
2.02615
1.97497
1
1
1
1
1
1
1
1
1
1.00001
1.00006
1.0005
1.00429
1.03862
1.23736
1.8732
2.73057
2.18701
2.09167
2.07158
2.07145
2.06239
2.04151
2.01256
1.97074
1
1
1
1
1
1
1
1
1
1
1.00003
1.00028
1.0024
1.02012
1.13876
1.57476
2.69097
2.26897
2.1344
2.06969
2.05667
2.043
2.0216
1.99384
1.95888
1
1
1
1
1
1
1
1
1
1
1.00001
1.00011
1.00097
1.00659
1.06127
1.40072
2.55318
2.42744
2.13754
2.05887
2.03346
2.01335
1.99024
1.96411
1.93594
1
1
1
1
1
1
1
1
1
1
1.00001
1.00005
1.00048
1.004
1.03493
1.22731
1.90798
2.70277
2.16245
2.09924
2.0225
2.00026
1.97845
1.95096
1.91809
1
1
1
1
1
1
1
1
1
1
1
1.00003
1.00028
1.00221
1.01821
1.12843
1.54923
2.63304
2.26572
2.10736
2.0131
1.98506
1.96421
1.93851
1.90982
1
1
1
1
1
1
1
1
1
1
1
1.00001
1.00009
1.0008
1.00696
1.05742
1.34135
2.43337
2.43332
2.10907
2.02464
1.9765
1.95016
1.92275
1.89925
1
1
1
1
1
1
1
1
1
1
1
1.00001
1.00005
1.00042
1.0033
1.02618
1.17093
1.74397
2.64748
2.17084
2.06404
1.97327
1.94845
1.92202
1.90048
1
1
1
1
1
1
1
1
1
1
1
1
1.00002
1.00013
1.00114
1.00984
1.07867
1.43814
2.50352
2.34365
2.05602
1.97681
1.94291
1.92155
1.90131
1
1
1
1
1
1
1
1
1
1
1
1
1.00001
1.00007
1.00055
1.00424
1.03313
1.20651
1.87448
2.62539
2.11132
2.02397
1.94298
1.92355
1.90199
1
1
1
1
1
1
1
1
1
1
1
1
1
1.00003
1.00012
1.00132
1.01166
1.09166
1.50146
2.52213
2.29742
2.01952
1.95052
1.92483
1.90693
1
1
1
1
1
1
1
1
1
1
1
1
1
1.00001
1.00008
1.00066
1.00493
1.03858
1.23753
2.03663
2.56702
2.0849
2.00025
1.9312
1.91423
1
1
1
1
1
1
1
1
1
1
1
1
1
1.00001
1.00007
1.00005
1.00129
1.01232
1.09567
1.53534
2.52468
2.28371
2.0039
1.95089
1.91527
1
1
1
1
1
1
1
1
1
1
1
1
1
1
1.00001
1.00009
1.00068
1.00503
1.03942
1.24397
2.06201
2.54476
2.08693
1.99055
1.92797
1
1
1
1
1
1
1
1
1
1
1
1
1
1
1
1.00003
0.999969
1.00115
1.01207
1.09377
1.52555
2.50034
2.29012
1.99663
1.96627
1
1
1
1
1
1
1
1
1
1
1
1
1
1
1
1.00001
1.00008
1.00061
1.00467
1.03746
1.23462
1.96349
2.55899
2.11224
1.98804
1
1
1
1
1
1
1
1
1
1
1
1
1
1
1
1
1.00001
0.999882
1.0009
1.01065
1.08476
1.48293
2.47625
2.31766
2.01355
1
1
1
1
1
1
1
1
1
1
1
1
1
1
1
1
1.00001
1.00006
1.00051
1.00416
1.03317
1.21262
1.85479
2.57881
2.17203
1
1
1
1
1
1
1
1
1
1
1
1
1
1
1
1
1
1.00002
1.00008
1.00114
1.01001
1.07725
1.44754
2.47934
2.40164
1
1
1
1
1
1
1
1
1
1
1
1
1
1
1
1
1
1.00001
1.00006
1.00053
1.00392
1.03095
1.19904
1.82849
2.64825
1
1
1
1
1
1
1
1
1
1
1
1
1
1
1
1
1
1
1.00003
0.999936
1.00086
1.00973
1.07767
1.44236
2.51519
1
1
1
1
1
1
1
1
1
1
1
1
1
1
1
1
1
1
1.00001
1.00007
1.00053
1.00404
1.03191
1.20315
1.84174
1
1
1
1
1
1
1
1
1
1
1
1
1
1
1
1
1
1
1
1.00002
1.00012
1.00129
1.01178
1.09475
1.49493
1
1
1
1
1
1
1
1
1
1
1
1
1
1
1
1
1
1
1
1.00001
1.00007
1.00057
1.00472
1.03581
1.21148
1
1
1
1
1
1
1
1
1
1
1
1
1
1
1
1
1
1
1
1
1.00002
1.00013
1.00145
1.00944
1.08107
1
1
1
1
1
1
1
1
1
1
1
1
1
1
1
1
1
1
1
0.999999
1.00001
1.00009
1.00079
1.00645
1.05328
1
1
1
1
1
1
1
1
1
1
1
1
1
1
1
1
1
1
1
1
1.00001
1.00005
1.00038
1.00294
1.02423
1
1
1
1
1
1
1
1
1
1
1
1
1
1
1
1
1
1
1
1
1
1.00006
1.00006
1.00096
1.0098
1
1
1
1
1
1
1
1
1
1
1
1
1
1
1
1
1
1
1
1
1
1.00001
1.00007
1.00063
1.00537
1
1
1
1
1
1
1
1
1
1
1
1
1
1
1
1
1
1
1
1
1
1.00001
1.00005
1.00044
1.00382
1
1
1
1
1
1
1
1
1
1
1
1
1
1
1
1
1
1
1
1
1
1
1.00005
1.00044
1.00398
1.41108
1.70372
2.22867
2.29551
2.24917
2.22613
2.16269
2.14499
2.13768
2.15161
2.16984
2.18396
2.19939
2.23341
2.26357
2.29356
2.31475
2.31649
2.29462
2.25995
2.22539
2.19415
2.16443
2.13695
2.10918
2.07888
2.04575
2.01103
1.97588
1.94155
1.9078
1.87535
1.84478
1.81688
1.79212
1.7706
1.75328
1.73982
1.72891
1.72044
1.71406
1.70928
1.70571
1.70371
1.70309
1.70313
1.70349
1.70427
1.70547
1.70703
1.70894
1.71113
1.71353
1.71608
1.71845
1.7205
1.72228
1.72396
1.7252
1.7258
1.72663
1.72777
1.72977
1.73365
1.73747
1.71973
1.55888
1.17472
1.01953
1.00188
1.0002
1.00002
1
1
1
1
1
1
1
1
1
1
1
1
1
1
1
1
1
1
1
1
1
1
1
1
1
1
1
1
1.62737
1.90953
2.21387
2.27396
2.2501
2.2718
2.27141
2.26455
2.27765
2.28656
2.30231
2.33625
2.38777
2.42951
2.48182
2.50496
2.49227
2.45782
2.41682
2.3646
2.2992
2.24071
2.19266
2.16389
2.14835
2.13405
2.11764
2.0969
2.07087
2.03996
2.00514
1.96747
1.92765
1.88621
1.84518
1.80786
1.77784
1.75567
1.74029
1.72981
1.72255
1.7178
1.71499
1.71352
1.71228
1.71106
1.71063
1.7107
1.71104
1.7117
1.71265
1.71387
1.71531
1.71691
1.71863
1.72037
1.72206
1.72373
1.72505
1.72568
1.72656
1.72781
1.72987
1.73372
1.73746
1.71975
1.55924
1.1751
1.01958
1.00189
1.0002
1.00002
1
1
1
1
1
1
1
1
1
1
1
1
1
1
1
1
1
1
1
1
1
1
1
1
1
1
1
1
1.49278
1.61485
1.85906
2.04647
2.13207
2.18234
2.20704
2.20221
2.20305
2.20819
2.25462
2.26689
2.26027
2.24639
2.22124
2.18376
2.1335
2.07258
2.02839
1.99007
1.95374
1.9165
1.87731
1.85243
1.84268
1.83463
1.82568
1.81561
1.80377
1.78978
1.77399
1.75712
1.73949
1.72127
1.70299
1.68649
1.67372
1.66523
1.66123
1.66033
1.66085
1.66306
1.66748
1.67397
1.68212
1.69043
1.6966
1.70145
1.70529
1.70831
1.71113
1.71368
1.71604
1.71809
1.71997
1.72155
1.72293
1.72422
1.72534
1.72582
1.72666
1.72796
1.73003
1.7338
1.73748
1.71975
1.5592
1.17509
1.01959
1.00189
1.0002
1.00002
1
1
1
1
1
1
1
1
1
1
1
1
1
1
1
1
1
1
1
1
1
1
1
1
1
1
1
1
1.51635
1.49694
1.58991
1.70805
1.82241
1.89536
1.96001
1.98337
1.9939
1.98927
1.99169
1.98381
1.94464
1.90509
1.88624
1.86375
1.82661
1.79051
1.77093
1.75993
1.75048
1.74111
1.73091
1.72827
1.7281
1.72526
1.72016
1.71369
1.70557
1.69555
1.68404
1.673
1.66222
1.65197
1.6432
1.63727
1.6335
1.63171
1.63132
1.63214
1.63488
1.64012
1.64806
1.65849
1.67086
1.68273
1.69202
1.69861
1.70358
1.70725
1.70994
1.71218
1.7143
1.71633
1.71814
1.71984
1.72141
1.72298
1.72436
1.72511
1.72617
1.72766
1.72991
1.7338
1.73749
1.7199
1.56005
1.17592
1.0197
1.0019
1.0002
1.00002
1
1
1
1
1
1
1
1
1
1
1
1
1
1
1
1
1
1
1
1
1
1
1
1
1
1
1
1
1.60521
1.51587
1.53784
1.60378
1.6309
1.66142
1.69328
1.71095
1.7134
1.70435
1.67929
1.66209
1.65802
1.65335
1.65752
1.6669
1.66475
1.65993
1.6609
1.66297
1.6665
1.6741
1.68039
1.68996
1.69639
1.69615
1.69436
1.69052
1.68423
1.67565
1.66544
1.65489
1.64476
1.63551
1.62909
1.62555
1.62322
1.62235
1.62258
1.62402
1.62747
1.63356
1.64243
1.65373
1.66701
1.68093
1.69147
1.69943
1.70502
1.70865
1.71132
1.71385
1.71594
1.7177
1.71924
1.72075
1.72212
1.72351
1.72483
1.72553
1.72656
1.728
1.73018
1.73398
1.73758
1.71986
1.55987
1.17587
1.01971
1.0019
1.0002
1.00002
1
1
1
1
1
1
1
1
1
1
1
1
1
1
1
1
1
1
1
1
1
1
1
1
1
1
1
1
1.72047
1.5715
1.5722
1.607
1.60444
1.60185
1.5993
1.59404
1.59076
1.58779
1.58238
1.56433
1.56003
1.56369
1.57799
1.59874
1.62356
1.62995
1.63648
1.64463
1.65284
1.66241
1.67468
1.69035
1.69987
1.70142
1.70072
1.6983
1.69314
1.68525
1.67553
1.66458
1.6532
1.64377
1.63562
1.6289
1.62569
1.62493
1.6249
1.62541
1.6286
1.63461
1.64291
1.65375
1.66703
1.68118
1.69261
1.70071
1.70625
1.70967
1.7123
1.71417
1.71566
1.71701
1.71837
1.7197
1.72103
1.72245
1.72385
1.72468
1.72583
1.72744
1.72987
1.73386
1.73752
1.7201
1.56138
1.17733
1.01991
1.00192
1.0002
1.00002
1
1
1
1
1
1
1
1
1
1
1
1
1
1
1
1
1
1
1
1
1
1
1
1
1
1
1
1
1.79976
1.64884
1.64241
1.6217
1.61118
1.60384
1.59444
1.59231
1.58686
1.57516
1.56265
1.55557
1.55057
1.55571
1.56945
1.58965
1.61373
1.63647
1.64447
1.65442
1.66653
1.68037
1.69786
1.71978
1.73295
1.73794
1.73946
1.73833
1.73365
1.7256
1.71487
1.70229
1.68897
1.6753
1.66075
1.65061
1.64414
1.63973
1.63685
1.63728
1.63898
1.64194
1.6476
1.65727
1.66963
1.68236
1.69388
1.70208
1.70771
1.71185
1.71449
1.71616
1.71741
1.71851
1.71962
1.72077
1.72198
1.72328
1.72449
1.72521
1.72627
1.72782
1.73022
1.73413
1.73765
1.72006
1.56115
1.17727
1.01992
1.00192
1.0002
1.00002
1
1
1
1
1
1
1
1
1
1
1
1
1
1
1
1
1
1
1
1
1
1
1
1
1
1
1
1
1.8385
1.72868
1.71595
1.68251
1.65714
1.62957
1.62356
1.61682
1.6061
1.58752
1.57327
1.57634
1.57717
1.57577
1.57887
1.59736
1.62584
1.66388
1.67397
1.68388
1.69492
1.70684
1.72357
1.74262
1.75583
1.76744
1.77273
1.77204
1.76835
1.7617
1.75201
1.73969
1.72534
1.70928
1.69155
1.67549
1.6616
1.65104
1.64774
1.64707
1.64638
1.64763
1.65265
1.661
1.67055
1.682
1.69373
1.70277
1.70868
1.71296
1.71559
1.71725
1.71829
1.71908
1.71981
1.72056
1.72142
1.72251
1.7237
1.72447
1.72557
1.72726
1.72984
1.73389
1.73753
1.72042
1.56317
1.17926
1.0202
1.00194
1.00021
1.00002
1
1
1
1
1
1
1
1
1
1
1
1
1
1
1
1
1
1
1
1
1
1
1
1
1
1
1
1
1.87967
1.77573
1.76478
1.75232
1.72446
1.69524
1.68744
1.6642
1.64265
1.62507
1.61162
1.61248
1.62124
1.62021
1.62107
1.63277
1.65675
1.68908
1.701
1.70587
1.71258
1.72159
1.7352
1.751
1.76516
1.78024
1.78721
1.78696
1.7845
1.77972
1.77202
1.76126
1.74764
1.73144
1.71305
1.69248
1.6721
1.66121
1.65608
1.65178
1.65125
1.65289
1.65685
1.66273
1.67116
1.68187
1.69354
1.70256
1.70962
1.71432
1.71716
1.71883
1.71983
1.72053
1.72115
1.72176
1.72244
1.72334
1.72435
1.72502
1.72606
1.72771
1.73025
1.73419
1.73768
1.7204
1.56301
1.1793
1.02022
1.00195
1.00021
1.00002
1
1
1
1
1
1
1
1
1
1
1
1
1
1
1
1
1
1
1
1
1
1
1
1
1
1
1
1
1.90063
1.81653
1.79797
1.79289
1.77778
1.76171
1.74952
1.71905
1.70248
1.68479
1.66176
1.65617
1.66544
1.66587
1.66154
1.66481
1.68259
1.70739
1.72329
1.72475
1.72879
1.73518
1.74458
1.75656
1.77038
1.78561
1.79209
1.792
1.79097
1.78775
1.78154
1.77218
1.75943
1.74359
1.72479
1.70225
1.6807
1.66796
1.65851
1.65504
1.65449
1.65497
1.65774
1.66376
1.67226
1.68327
1.69376
1.70208
1.70948
1.71477
1.71813
1.71994
1.72088
1.72144
1.72182
1.72215
1.72256
1.72318
1.72402
1.72456
1.72552
1.72722
1.72986
1.73393
1.73757
1.72085
1.56535
1.18164
1.02056
1.00198
1.00021
1.00002
1
1
1
1
1
1
1
1
1
1
1
1
1
1
1
1
1
1
1
1
1
1
1
1
1
1
1
1
1.90526
1.83902
1.82621
1.82091
1.81049
1.80667
1.78824
1.77985
1.77143
1.75255
1.72557
1.70046
1.70028
1.70165
1.69642
1.69667
1.70622
1.72659
1.73652
1.7392
1.74284
1.74804
1.75543
1.76436
1.77529
1.789
1.79343
1.79445
1.79423
1.79181
1.78631
1.77773
1.76595
1.7505
1.7312
1.70866
1.68607
1.66952
1.66148
1.65678
1.65415
1.65552
1.6594
1.6653
1.67355
1.68448
1.69379
1.70245
1.71013
1.71532
1.71878
1.72102
1.72209
1.72258
1.72291
1.72322
1.72358
1.72409
1.72475
1.72513
1.726
1.72764
1.73025
1.73424
1.73774
1.72087
1.56534
1.18184
1.02061
1.00198
1.00021
1.00002
1
1
1
1
1
1
1
1
1
1
1
1
1
1
1
1
1
1
1
1
1
1
1
1
1
1
1
1
1.90228
1.8524
1.84462
1.85204
1.84432
1.84129
1.8281
1.8312
1.82176
1.80344
1.77997
1.74969
1.73705
1.73793
1.73868
1.73705
1.73823
1.74836
1.75622
1.75678
1.75779
1.76067
1.76541
1.77265
1.78216
1.78904
1.79493
1.79754
1.79698
1.79421
1.78939
1.78177
1.7706
1.75503
1.73513
1.71195
1.68717
1.67123
1.662
1.6568
1.65675
1.65784
1.66019
1.66553
1.67528
1.68528
1.69222
1.70116
1.71111
1.71609
1.71944
1.72187
1.72312
1.72356
1.72378
1.72397
1.72417
1.72448
1.72492
1.72509
1.72578
1.72734
1.72997
1.73404
1.73769
1.72138
1.56781
1.18433
1.02097
1.00201
1.00021
1.00002
1
1
1
1
1
1
1
1
1
1
1
1
1
1
1
1
1
1
1
1
1
1
1
1
1
1
1
1
1.89008
1.85156
1.85092
1.86689
1.85859
1.84818
1.85085
1.86335
1.85986
1.8504
1.83518
1.8077
1.7813
1.77995
1.78348
1.78135
1.77666
1.77672
1.77861
1.77416
1.771
1.77211
1.77484
1.77934
1.78628
1.79217
1.79862
1.7992
1.79801
1.79634
1.79302
1.78587
1.77348
1.75769
1.73845
1.71365
1.69161
1.67523
1.663
1.65954
1.65932
1.65945
1.6624
1.66916
1.67706
1.68373
1.69303
1.70431
1.71081
1.71578
1.72032
1.72267
1.72414
1.7248
1.72498
1.72505
1.72513
1.72531
1.72564
1.72572
1.72633
1.72781
1.73036
1.73435
1.73788
1.72147
1.56798
1.18469
1.02104
1.00202
1.00022
1.00002
1
1
1
1
1
1
1
1
1
1
1
1
1
1
1
1
1
1
1
1
1
1
1
1
1
1
1
1
1.87447
1.84458
1.84861
1.86999
1.86687
1.86406
1.87273
1.8784
1.88505
1.88828
1.88561
1.86456
1.83675
1.82688
1.83012
1.82065
1.80471
1.8059
1.801
1.79215
1.78286
1.78101
1.78201
1.78484
1.78964
1.79789
1.80007
1.79996
1.79994
1.79897
1.7957
1.78731
1.776
1.76172
1.74131
1.71552
1.69312
1.6751
1.66463
1.66119
1.65982
1.66087
1.66443
1.6697
1.67535
1.6839
1.69614
1.70522
1.70915
1.71486
1.72088
1.72365
1.72503
1.72578
1.72603
1.72602
1.72596
1.726
1.72615
1.72607
1.72651
1.72781
1.73025
1.73425
1.73793
1.72204
1.57036
1.18717
1.02139
1.00205
1.00022
1.00002
1
1
1
1
1
1
1
1
1
1
1
1
1
1
1
1
1
1
1
1
1
1
1
1
1
1
1
1
1.87365
1.84306
1.84462
1.87313
1.87859
1.8754
1.87947
1.89015
1.9088
1.9083
1.90699
1.89789
1.88784
1.87751
1.8645
1.8491
1.83367
1.82422
1.81837
1.80931
1.79782
1.78982
1.78871
1.78989
1.7933
1.79914
1.8026
1.80388
1.80341
1.80082
1.79556
1.78816
1.7782
1.76376
1.74312
1.71921
1.6937
1.67548
1.66726
1.66231
1.66119
1.66257
1.66562
1.66948
1.67591
1.68643
1.69755
1.70273
1.70883
1.71614
1.72099
1.72423
1.72603
1.72669
1.72699
1.72704
1.72698
1.72693
1.72695
1.72677
1.72712
1.7283
1.73064
1.73457
1.73817
1.72222
1.57067
1.18762
1.02147
1.00206
1.00022
1.00002
1
1
1
1
1
1
1
1
1
1
1
1
1
1
1
1
1
1
1
1
1
1
1
1
1
1
1
1
1.87348
1.8451
1.84324
1.87332
1.87887
1.87926
1.88776
1.90509
1.91057
1.91163
1.92487
1.92732
1.91619
1.90318
1.88922
1.8765
1.86291
1.83642
1.83085
1.82246
1.81015
1.79769
1.79401
1.79438
1.79672
1.80141
1.80492
1.8062
1.80529
1.80181
1.79688
1.78984
1.77994
1.76437
1.74446
1.72107
1.6935
1.67815
1.66847
1.66286
1.66255
1.66348
1.66605
1.67015
1.67785
1.68808
1.69511
1.70298
1.7124
1.71715
1.7199
1.72407
1.72704
1.72778
1.72807
1.72811
1.72802
1.72787
1.72772
1.72741
1.72765
1.72864
1.73081
1.73465
1.73837
1.72287
1.57283
1.18979
1.02178
1.00209
1.00022
1.00002
1
1
1
1
1
1
1
1
1
1
1
1
1
1
1
1
1
1
1
1
1
1
1
1
1
1
1
1
1.87694
1.84958
1.84574
1.86628
1.87601
1.88182
1.89024
1.90164
1.90742
1.92274
1.95276
1.9514
1.93101
1.91389
1.90433
1.89589
1.87733
1.84892
1.83463
1.82465
1.81564
1.80533
1.79914
1.79842
1.80022
1.80471
1.80755
1.80811
1.80663
1.80398
1.79948
1.79164
1.78036
1.76568
1.74631
1.72222
1.69693
1.68059
1.66891
1.66511
1.66477
1.66538
1.66725
1.67252
1.68039
1.68854
1.69659
1.70679
1.7134
1.71531
1.71915
1.72438
1.72753
1.72856
1.72891
1.72903
1.72897
1.72883
1.72859
1.72819
1.72835
1.72921
1.73125
1.73502
1.7387
1.72316
1.57319
1.19017
1.02184
1.00209
1.00022
1.00002
1
1
1
1
1
1
1
1
1
1
1
1
1
1
1
1
1
1
1
1
1
1
1
1
1
1
1
1
1.87938
1.85506
1.8472
1.85566
1.86844
1.88212
1.88401
1.88754
1.90241
1.93892
1.97267
1.97019
1.95063
1.9317
1.9213
1.90655
1.8851
1.8582
1.83738
1.81998
1.81131
1.80771
1.80295
1.80163
1.80335
1.80682
1.81006
1.80955
1.80843
1.80625
1.80177
1.79341
1.78167
1.766
1.7458
1.72034
1.69854
1.68056
1.66985
1.66682
1.66631
1.66668
1.66924
1.67465
1.68159
1.68947
1.69947
1.70568
1.71034
1.71571
1.72132
1.72453
1.72776
1.72963
1.73
1.73007
1.73006
1.72994
1.7296
1.72908
1.72916
1.72985
1.7317
1.73535
1.7391
1.72387
1.57493
1.19176
1.02206
1.00211
1.00022
1.00002
1
1
1
1
1
1
1
1
1
1
1
1
1
1
1
1
1
1
1
1
1
1
1
1
1
1
1
1
1.88392
1.86147
1.84684
1.84948
1.86595
1.87286
1.87249
1.87862
1.90355
1.94081
1.9714
1.97603
1.96644
1.94908
1.93673
1.91653
1.89203
1.86196
1.84181
1.81824
1.80451
1.8035
1.80365
1.80307
1.8044
1.80802
1.81046
1.81062
1.80975
1.80696
1.80236
1.79526
1.78379
1.76783
1.74735
1.72264
1.6985
1.68154
1.672
1.66849
1.66786
1.66876
1.67148
1.67623
1.68304
1.69198
1.69908
1.70516
1.71223
1.71824
1.72114
1.72416
1.72712
1.73008
1.73097
1.73108
1.73111
1.73099
1.73054
1.72998
1.73002
1.73057
1.73228
1.73583
1.73956
1.72428
1.57519
1.19185
1.02207
1.00211
1.00022
1.00002
1
1
1
1
1
1
1
1
1
1
1
1
1
1
1
1
1
1
1
1
1
1
1
1
1
1
1
1
1.89172
1.87059
1.84866
1.84873
1.86007
1.86026
1.86423
1.87927
1.90445
1.93342
1.96203
1.9722
1.97159
1.95399
1.94043
1.92638
1.90376
1.8763
1.84334
1.8141
1.80038
1.80032
1.8025
1.80333
1.80536
1.80875
1.81133
1.81181
1.81089
1.80876
1.80468
1.79743
1.78587
1.76968
1.74921
1.72507
1.69921
1.68136
1.6732
1.66927
1.66875
1.67
1.67288
1.67812
1.68598
1.69297
1.70005
1.70799
1.71318
1.71761
1.72232
1.7245
1.72688
1.73023
1.73224
1.73236
1.73228
1.73213
1.73158
1.73101
1.731
1.73144
1.73298
1.73642
1.74017
1.72504
1.57632
1.19263
1.02216
1.00212
1.00023
1.00002
1
1
1
1
1
1
1
1
1
1
1
1
1
1
1
1
1
1
1
1
1
1
1
1
1
1
1
1
1.89726
1.88024
1.85541
1.85094
1.85686
1.85945
1.86908
1.88159
1.89847
1.92607
1.96236
1.96789
1.96946
1.95984
1.94118
1.9273
1.90993
1.8848
1.85179
1.81698
1.8027
1.79985
1.80092
1.80401
1.80728
1.81017
1.81256
1.81245
1.81192
1.81019
1.80557
1.79839
1.78779
1.77164
1.75087
1.72559
1.70134
1.68438
1.67426
1.67156
1.67128
1.67227
1.67541
1.68019
1.68699
1.69484
1.70404
1.70956
1.71328
1.71827
1.72294
1.72429
1.72713
1.73064
1.73252
1.73319
1.73323
1.73318
1.73264
1.73201
1.73195
1.73231
1.73373
1.73707
1.74079
1.72554
1.57627
1.19217
1.02208
1.00211
1.00022
1.00002
1
1
1
1
1
1
1
1
1
1
1
1
1
1
1
1
1
1
1
1
1
1
1
1
1
1
1
1
1.90638
1.89103
1.86242
1.84898
1.85218
1.86463
1.87267
1.87722
1.8875
1.92003
1.95804
1.96068
1.96022
1.96129
1.95269
1.93784
1.92137
1.89446
1.86092
1.82483
1.80601
1.80045
1.80086
1.80383
1.80891
1.8133
1.81587
1.81635
1.81551
1.81345
1.80919
1.80153
1.79014
1.77461
1.75349
1.72868
1.7021
1.68646
1.67743
1.67354
1.67346
1.67448
1.6771
1.68226
1.68894
1.69761
1.70567
1.71001
1.71517
1.721
1.72306
1.72517
1.72799
1.73082
1.73283
1.73397
1.73428
1.73428
1.73381
1.73318
1.73309
1.73338
1.73469
1.73792
1.74163
1.72633
1.57664
1.19191
1.022
1.0021
1.00022
1.00002
1
1
1
1
1
1
1
1
1
1
1
1
1
1
1
1
1
1
1
1
1
1
1
1
1
1
1
1
1.91698
1.90102
1.87488
1.85684
1.86013
1.87161
1.87311
1.87528
1.88761
1.91735
1.94715
1.96053
1.95635
1.94619
1.94988
1.94414
1.92709
1.90201
1.87066
1.83596
1.81108
1.80297
1.80314
1.80568
1.81035
1.81651
1.81962
1.8198
1.81895
1.81645
1.81165
1.80384
1.79205
1.77587
1.75547
1.73133
1.70607
1.68687
1.67924
1.67718
1.67605
1.67723
1.67994
1.68494
1.69192
1.69934
1.7073
1.71329
1.71809
1.72182
1.72353
1.72592
1.72875
1.73067
1.73319
1.73471
1.73523
1.73529
1.73482
1.73429
1.73419
1.73444
1.73567
1.73881
1.74245
1.7269
1.57605
1.19062
1.02178
1.00208
1.00022
1.00002
1
1
1
1
1
1
1
1
1
1
1
1
1
1
1
1
1
1
1
1
1
1
1
1
1
1
1
1
1.92538
1.90897
1.8915
1.87668
1.87539
1.87373
1.87316
1.87796
1.89094
1.91266
1.93974
1.96273
1.95876
1.94549
1.94277
1.94441
1.92994
1.90686
1.87457
1.84382
1.82103
1.80961
1.80807
1.81006
1.81392
1.81926
1.82389
1.82437
1.82329
1.82059
1.81561
1.80761
1.79609
1.77966
1.75849
1.73299
1.70878
1.69115
1.68138
1.67921
1.67913
1.68002
1.68316
1.68787
1.69481
1.70247
1.70876
1.7154
1.72109
1.72232
1.7246
1.72796
1.73005
1.73112
1.73316
1.73554
1.73651
1.73659
1.73612
1.73557
1.73547
1.7357
1.73687
1.73993
1.74351
1.72769
1.57551
1.18916
1.02152
1.00205
1.00022
1.00002
1
1
1
1
1
1
1
1
1
1
1
1
1
1
1
1
1
1
1
1
1
1
1
1
1
1
1
1
1.93038
1.92222
1.91
1.89975
1.88913
1.88033
1.88094
1.88557
1.89615
1.91396
1.94186
1.97266
1.96872
1.95162
1.93657
1.94486
1.93502
1.91094
1.87789
1.8494
1.82993
1.81898
1.81484
1.81564
1.81925
1.82485
1.82839
1.82942
1.82835
1.82569
1.82071
1.81255
1.80026
1.78338
1.76168
1.73635
1.71086
1.69497
1.68567
1.68218
1.68239
1.68357
1.68638
1.6912
1.69731
1.70509
1.71132
1.71773
1.72182
1.72541
1.72748
1.72918
1.73054
1.73191
1.73321
1.73521
1.73706
1.73748
1.73722
1.73678
1.73666
1.7369
1.73807
1.74108
1.74457
1.72829
1.57417
1.18684
1.02114
1.00201
1.00021
1.00002
1
1
1
1
1
1
1
1
1
1
1
1
1
1
1
1
1
1
1
1
1
1
1
1
1
1
1
1
1.98259
1.95033
1.93734
1.92103
1.9019
1.8946
1.89749
1.89742
1.90257
1.92058
1.95415
1.97495
1.97045
1.96455
1.9491
1.9426
1.93664
1.91415
1.88406
1.85544
1.83891
1.82974
1.82451
1.82494
1.82742
1.83088
1.83443
1.83637
1.83574
1.83295
1.82754
1.8187
1.80562
1.788
1.76591
1.73944
1.71547
1.69821
1.6896
1.68632
1.68585
1.68706
1.68981
1.69436
1.70064
1.70751
1.7146
1.72057
1.72354
1.72731
1.72929
1.73069
1.73228
1.73348
1.73423
1.7354
1.73736
1.73869
1.73868
1.73829
1.73807
1.7383
1.73946
1.74247
1.74585
1.72903
1.57252
1.18415
1.02069
1.00197
1.00021
1.00002
1
1
1
1
1
1
1
1
1
1
1
1
1
1
1
1
1
1
1
1
1
1
1
1
1
1
1
1
1.99373
1.96281
1.94531
1.93043
1.91715
1.91165
1.90622
1.90787
1.91455
1.93278
1.95573
1.96511
1.97049
1.98629
1.9799
1.96285
1.9423
1.91978
1.88963
1.85933
1.84652
1.84242
1.8383
1.83729
1.83789
1.83999
1.84282
1.84418
1.84425
1.84239
1.83725
1.82798
1.81429
1.79574
1.77269
1.74614
1.72001
1.70328
1.694
1.69058
1.69034
1.69124
1.69397
1.69844
1.70433
1.71134
1.7178
1.72261
1.72693
1.7291
1.73173
1.7334
1.73428
1.73462
1.7352
1.73608
1.73721
1.73919
1.73991
1.73973
1.73951
1.73974
1.74091
1.74394
1.74721
1.72966
1.57015
1.18074
1.02015
1.00191
1.0002
1.00002
1
1
1
1
1
1
1
1
1
1
1
1
1
1
1
1
1
1
1
1
1
1
1
1
1
1
1
1
2.06047
2.01738
1.96552
1.94416
1.93079
1.92311
1.91945
1.92203
1.92873
1.94489
1.96588
1.9729
1.9784
1.9839
1.99312
1.981
1.95495
1.92835
1.89994
1.8743
1.85937
1.85567
1.85362
1.85215
1.85248
1.854
1.85581
1.85675
1.85658
1.85456
1.84879
1.83862
1.82399
1.80498
1.78166
1.75458
1.72837
1.71051
1.70115
1.69732
1.69672
1.69752
1.69976
1.70372
1.7091
1.71541
1.72162
1.72637
1.72959
1.73232
1.73442
1.73579
1.73662
1.7369
1.73721
1.73743
1.73797
1.73954
1.74118
1.74134
1.74126
1.74148
1.74261
1.74562
1.74875
1.73049
1.56725
1.17679
1.01953
1.00186
1.0002
1.00002
1
1
1
1
1
1
1
1
1
1
1
1
1
1
1
1
1
1
1
1
1
1
1
1
1
1
1
1
2.242
2.03892
1.98388
1.96233
1.95244
1.94083
1.93996
1.94225
1.95221
1.9687
1.98547
1.99108
1.99622
1.99464
1.99419
1.98799
1.9661
1.93653
1.90667
1.88317
1.87579
1.87357
1.87198
1.87092
1.8698
1.87104
1.873
1.87355
1.87312
1.87065
1.8646
1.85437
1.83948
1.8194
1.79448
1.76553
1.73895
1.72147
1.71124
1.70659
1.7054
1.70574
1.70744
1.71082
1.7156
1.72128
1.72683
1.73112
1.7342
1.73624
1.73762
1.73844
1.73934
1.73991
1.73967
1.73913
1.7395
1.74058
1.74225
1.74295
1.74305
1.74334
1.74446
1.74745
1.75039
1.7313
1.56372
1.17224
1.01884
1.00179
1.00019
1.00002
1
1
1
1
1
1
1
1
1
1
1
1
1
1
1
1
1
1
1
1
1
1
1
1
1
1
1
1
2.46329
2.09802
2.04894
1.99227
1.97733
1.96635
1.96785
1.97333
1.99294
1.99219
1.99136
2.00161
2.02343
2.02077
2.01238
2.0013
1.98019
1.94349
1.92284
1.90493
1.89848
1.89399
1.89447
1.89746
1.8984
1.8994
1.89944
1.89954
1.89835
1.89377
1.88586
1.87412
1.85826
1.83727
1.81171
1.78257
1.75529
1.73627
1.72451
1.71869
1.71681
1.71682
1.71793
1.72052
1.72451
1.72946
1.73431
1.73774
1.73995
1.74133
1.74209
1.74257
1.74291
1.74283
1.74269
1.74243
1.74214
1.74239
1.74341
1.74467
1.74508
1.7455
1.7466
1.74951
1.75222
1.73218
1.55974
1.16727
1.01809
1.00172
1.00018
1.00002
1
1
1
1
1
1
1
1
1
1
1
1
1
1
1
1
1
1
1
1
1
1
1
1
1
1
1
1
2.71689
2.24768
2.09883
2.02584
2.01205
1.99856
1.99671
1.99996
2.0099
2.01121
2.01243
2.03731
2.06459
2.061
2.04262
2.02201
1.99528
1.96197
1.94481
1.93633
1.93083
1.93184
1.93282
1.93465
1.93503
1.93505
1.93543
1.93425
1.93115
1.92523
1.91607
1.90284
1.88478
1.86186
1.83487
1.80498
1.77561
1.75437
1.74098
1.73441
1.73178
1.73109
1.73143
1.73291
1.73571
1.73962
1.74333
1.74563
1.74711
1.748
1.74803
1.74785
1.74749
1.74701
1.74639
1.74566
1.74524
1.745
1.74543
1.74641
1.74714
1.74775
1.74892
1.75179
1.75425
1.73305
1.55531
1.16196
1.01732
1.00164
1.00017
1.00002
1
1
1
1
1
1
1
1
1
1
1
1
1
1
1
1
1
1
1
1
1
1
1
1
1
1
1
1
2.5251
2.42816
2.11901
2.07852
2.03867
2.02412
2.02405
2.02789
2.03448
2.04801
2.05844
2.07037
2.09692
2.09881
2.08285
2.05267
2.01795
2.0033
1.99339
1.98157
1.98016
1.98085
1.98481
1.98469
1.98282
1.98096
1.97911
1.97575
1.96987
1.96091
1.94927
1.93379
1.91393
1.88948
1.86095
1.82841
1.79771
1.77554
1.76156
1.75354
1.74922
1.74722
1.74677
1.74729
1.74896
1.75149
1.75381
1.75568
1.75617
1.75596
1.75537
1.75445
1.75331
1.75209
1.75082
1.74964
1.74874
1.74815
1.74819
1.74867
1.74937
1.75011
1.7514
1.7543
1.75659
1.73399
1.55056
1.15649
1.01654
1.00157
1.00016
1.00002
1
1
1
1
1
1
1
1
1
1
1
1
1
1
1
1
1
1
1
1
1
1
1
1
1
1
1
1
1.86977
2.69328
2.21212
2.13578
2.07587
2.05664
2.05958
2.07051
2.08548
2.1067
2.11987
2.13224
2.13795
2.14843
2.1377
2.10959
2.07868
2.0599
2.05412
2.05168
2.04956
2.04466
2.03734
2.03552
2.03267
2.02775
2.02083
2.01344
2.00443
1.9936
1.97969
1.96152
1.93907
1.91305
1.88302
1.84893
1.81799
1.79616
1.7811
1.77152
1.76603
1.76322
1.76208
1.76196
1.76246
1.76378
1.76564
1.76597
1.7656
1.76466
1.76324
1.76154
1.7597
1.75781
1.75593
1.75417
1.75273
1.75174
1.75133
1.75144
1.75188
1.75262
1.75406
1.75701
1.75924
1.7351
1.54564
1.15097
1.01578
1.0015
1.00016
1.00002
1
1
1
1
1
1
1
1
1
1
1
1
1
1
1
1
1
1
1
1
1
1
1
1
1
1
1
1
1.54063
2.68755
2.4508
2.14062
2.08774
2.09106
2.10479
2.13083
2.15951
2.18634
2.21834
2.23104
2.22497
2.21883
2.20717
2.17952
2.15985
2.14241
2.1213
2.11128
2.10252
2.0961
2.08721
2.07486
2.06756
2.05995
2.05146
2.04168
2.03055
2.01737
2.00137
1.98134
1.95765
1.93024
1.89881
1.86411
1.83507
1.81188
1.79536
1.78534
1.77946
1.77625
1.77464
1.77427
1.77451
1.77533
1.7757
1.77541
1.77451
1.773
1.77102
1.76877
1.76636
1.7638
1.76123
1.75896
1.75707
1.75568
1.75479
1.75456
1.75474
1.75536
1.75688
1.75993
1.76214
1.7364
1.54084
1.14565
1.01505
1.00143
1.00015
1.00002
1
1
1
1
1
1
1
1
1
1
1
1
1
1
1
1
1
1
1
1
1
1
1
1
1
1
1
1
1.32071
2.28763
2.70436
2.22296
2.12981
2.13885
2.17216
2.23119
2.24891
2.28513
2.3345
2.35544
2.34092
2.31573
2.27793
2.24228
2.20831
2.18307
2.16857
2.15184
2.13162
2.12343
2.11323
2.10098
2.08849
2.0775
2.0668
2.05652
2.04474
2.03055
2.01335
1.9936
1.96894
1.93978
1.90751
1.87317
1.84313
1.81916
1.80279
1.79267
1.78677
1.78363
1.78233
1.78233
1.78274
1.7832
1.78318
1.78272
1.78163
1.77995
1.77782
1.77531
1.77247
1.76937
1.76632
1.76367
1.76141
1.75967
1.75837
1.75776
1.75776
1.75825
1.75981
1.76303
1.7652
1.73789
1.5364
1.14072
1.01438
1.00136
1.00014
1.00002
1
1
1
1
1
1
1
1
1
1
1
1
1
1
1
1
1
1
1
1
1
1
1
1
1
1
1
1
1.16404
1.69177
2.75477
2.4063
2.19274
2.22998
2.30883
2.3421
2.37389
2.40162
2.43795
2.44263
2.42019
2.37319
2.30334
2.26263
2.23155
2.20252
2.1851
2.1671
2.14697
2.13368
2.1208
2.10835
2.09704
2.08595
2.07509
2.06377
2.05113
2.03634
2.01925
1.99972
1.9747
1.94414
1.90983
1.87511
1.84488
1.82125
1.80459
1.79409
1.78833
1.78551
1.78511
1.78559
1.78637
1.78702
1.7872
1.78702
1.78629
1.78491
1.78291
1.78033
1.77731
1.77405
1.7708
1.76788
1.76538
1.7634
1.76179
1.76089
1.76075
1.76116
1.76274
1.7662
1.76837
1.73955
1.53251
1.13636
1.0138
1.00131
1.00014
1.00001
1
1
1
1
1
1
1
1
1
1
1
1
1
1
1
1
1
1
1
1
1
1
1
1
1
1
1
1
1.0768
1.42788
2.64137
2.76704
2.40832
2.41213
2.43125
2.42625
2.4816
2.49953
2.48964
2.45437
2.40315
2.34772
2.28981
2.2495
2.22165
2.19752
2.17832
2.16168
2.1448
2.12912
2.11778
2.10632
2.09569
2.08678
2.07676
2.06549
2.05274
2.03829
2.02159
2.00147
1.976
1.94442
1.90849
1.87336
1.84264
1.81893
1.80173
1.79118
1.7856
1.78359
1.78373
1.78451
1.78574