/*--------------------------------*- C++ -*----------------------------------*\
| =========                 |                                                 |
| \\      /  F ield         | OpenFOAM: The Open Source CFD Toolbox           |
|  \\    /   O peration     | Version:  v2106                                 |
|   \\  /    A nd           | Website:  www.openfoam.com                      |
|    \\/     M anipulation  |                                                 |
\*---------------------------------------------------------------------------*/
FoamFile
{
    version     2.0;
    format      ascii;
    arch        "LSB;label=32;scalar=64";
    class       volVectorField;
    location    "1";
    object      U;
}
// * * * * * * * * * * * * * * * * * * * * * * * * * * * * * * * * * * * * * //

dimensions      [0 1 -1 0 0 0 0];

internalField   nonuniform List<vector> 
5250
(
(3 -8.32394e-13 0)
(3 8.08993e-13 0)
(3 5.60777e-12 0)
(3 6.7092e-11 0)
(3 3.87477e-10 0)
(3 4.40846e-09 0)
(3 3.54242e-08 0)
(3.00001 1.73952e-07 0)
(3.00006 3.77068e-06 0)
(3.00079 -2.30853e-05 0)
(3.00201 0.000238726 0)
(3.0829 0.00186277 0)
(2.91125 0.00302157 0)
(2.02013 0.0449111 0)
(0.534511 0.014651 0)
(0.669358 0.0166429 0)
(0.624282 0.0189682 0)
(0.546442 0.0219682 0)
(0.47042 0.022079 0)
(0.417208 0.0237441 0)
(0.349056 0.02666 0)
(0.281775 0.0277348 0)
(0.205982 0.0286647 0)
(0.128544 0.0288876 0)
(0.0428061 0.0295729 0)
(3 -2.05653e-12 0)
(3 1.96283e-12 0)
(3 2.09685e-11 0)
(3 1.45041e-10 0)
(3 1.54377e-09 0)
(3 7.97673e-09 0)
(3 1.30898e-07 0)
(3.00001 7.45456e-08 0)
(3.00005 1.32748e-05 0)
(3.00083 -0.000163145 0)
(3.00158 0.000762135 0)
(3.08097 0.00567478 0)
(2.91823 0.0114869 0)
(2.04872 0.12896 0)
(0.523491 0.0405237 0)
(0.665126 0.0425415 0)
(0.619464 0.0474305 0)
(0.541224 0.0556083 0)
(0.46547 0.0658351 0)
(0.413115 0.0767308 0)
(0.347502 0.0805319 0)
(0.28194 0.0829496 0)
(0.206847 0.0845561 0)
(0.129176 0.083458 0)
(0.0427508 0.0840196 0)
(3 -2.0847e-12 0)
(3 1.70121e-12 0)
(3 4.04146e-11 0)
(3 1.09725e-10 0)
(3 3.3805e-09 0)
(3 -3.29531e-10 0)
(3 3.19189e-07 0)
(3.00001 -2.99174e-06 0)
(3.00003 2.72063e-05 0)
(3.00105 -0.000383048 0)
(3.00086 0.00113715 0)
(3.07693 0.00884508 0)
(2.93382 0.0194349 0)
(2.13004 0.208932 0)
(0.516388 0.0768423 0)
(0.662023 0.0754143 0)
(0.616128 0.0840151 0)
(0.538811 0.0974507 0)
(0.46383 0.10761 0)
(0.416236 0.120235 0)
(0.353943 0.129157 0)
(0.288241 0.135148 0)
(0.212065 0.140515 0)
(0.132391 0.140924 0)
(0.0435297 0.142576 0)
(3 6.05732e-13 0)
(3 -2.98257e-12 0)
(3 1.11102e-10 0)
(3 -5.85738e-10 0)
(3 1.02586e-08 0)
(3 -1.41505e-07 0)
(3 6.77017e-07 0)
(3.00001 -3.29521e-06 0)
(2.99999 2.68658e-05 0)
(3.00108 -0.000188044 0)
(3.0003 0.00103504 0)
(3.07143 0.0102272 0)
(2.95148 0.0226774 0)
(2.22771 0.269021 0)
(0.545872 0.128608 0)
(0.669354 0.106475 0)
(0.622045 0.111644 0)
(0.545498 0.129249 0)
(0.470794 0.144933 0)
(0.422832 0.166266 0)
(0.36131 0.181016 0)
(0.295777 0.192313 0)
(0.219305 0.19999 0)
(0.137519 0.200398 0)
(0.0469149 0.201439 0)
(3 8.72459e-13 0)
(3 5.55011e-12 0)
(3 7.59672e-11 0)
(3 5.48341e-10 0)
(3 5.69017e-09 0)
(3 3.8982e-08 0)
(3 3.72845e-07 0)
(3.00002 2.02784e-06 0)
(2.99997 1.98476e-05 0)
(3.00088 4.98474e-05 0)
(2.99945 0.00103577 0)
(3.06486 0.0098431 0)
(2.96898 0.0214063 0)
(2.31746 0.291305 0)
(0.624803 0.201058 0)
(0.696727 0.153974 0)
(0.64294 0.148087 0)
(0.557395 0.167444 0)
(0.480487 0.184759 0)
(0.435144 0.208128 0)
(0.377035 0.228211 0)
(0.313003 0.24258 0)
(0.23315 0.257639 0)
(0.149007 0.260318 0)
(0.048421 0.266767 0)
(3 1.11031e-12 0)
(3 -6.49189e-12 0)
(3 3.87905e-11 0)
(3 -1.87528e-10 0)
(3 1.36733e-09 0)
(3 -6.89736e-09 0)
(3 8.19381e-08 0)
(3.00001 1.55383e-07 0)
(2.99996 1.09254e-05 0)
(3.00086 7.10945e-05 0)
(2.99837 0.000935883 0)
(3.05764 0.00910298 0)
(2.98764 0.0252655 0)
(2.39599 0.268446 0)
(0.717712 0.270258 0)
(0.736729 0.218475 0)
(0.678946 0.19601 0)
(0.580956 0.207274 0)
(0.498994 0.22045 0)
(0.454624 0.249207 0)
(0.398868 0.275273 0)
(0.329546 0.303864 0)
(0.251123 0.322862 0)
(0.158514 0.331671 0)
(0.0569282 0.337087 0)
(3 6.13948e-12 0)
(3 -7.70596e-12 0)
(3 1.17296e-10 0)
(3 -1.40753e-10 0)
(3 3.74757e-09 0)
(3 -6.16519e-10 0)
(3 2.14338e-07 0)
(3.00001 6.46704e-07 0)
(2.99993 1.31781e-05 0)
(3.00095 8.90205e-05 0)
(2.99806 0.000852684 0)
(3.05023 0.00872595 0)
(3.00541 0.0351774 0)
(2.47026 0.231308 0)
(0.804665 0.331717 0)
(0.780555 0.28138 0)
(0.718765 0.256076 0)
(0.618712 0.25984 0)
(0.528791 0.262762 0)
(0.486985 0.286669 0)
(0.427417 0.326097 0)
(0.36673 0.353498 0)
(0.280515 0.387294 0)
(0.189306 0.39876 0)
(0.0680078 0.420741 0)
(3 -5.60235e-13 0)
(3 -6.1093e-12 0)
(3 -2.78129e-11 0)
(3 -7.46022e-10 0)
(3 -5.31932e-09 0)
(3 -2.60545e-08 0)
(3 2.48052e-07 0)
(3.00002 6.03189e-07 0)
(2.99991 1.00976e-05 0)
(3.00089 9.52081e-05 0)
(2.99814 0.000772397 0)
(3.04246 0.00771149 0)
(3.02396 0.0421864 0)
(2.54313 0.201636 0)
(0.894117 0.369064 0)
(0.819628 0.342611 0)
(0.763372 0.31305 0)
(0.676617 0.315089 0)
(0.578713 0.306759 0)
(0.526642 0.331173 0)
(0.470888 0.370395 0)
(0.397633 0.423366 0)
(0.314362 0.46201 0)
(0.211569 0.494386 0)
(0.0687747 0.525512 0)
(3 -3.01848e-14 0)
(3 4.50927e-12 0)
(3 -1.00506e-10 0)
(3 6.44906e-10 0)
(3 -7.86608e-09 0)
(3 -1.51103e-08 0)
(3 1.08459e-07 0)
(3.00002 1.04152e-06 0)
(2.99991 6.93057e-06 0)
(3.00079 8.49784e-05 0)
(2.99804 0.000550938 0)
(3.03769 -0.00128577 0)
(3.04092 0.0513742 0)
(2.62124 0.182824 0)
(1.01234 0.393263 0)
(0.83933 0.377388 0)
(0.818252 0.36473 0)
(0.75338 0.373233 0)
(0.653714 0.366807 0)
(0.585489 0.374555 0)
(0.51767 0.432209 0)
(0.461039 0.474166 0)
(0.366886 0.540369 0)
(0.26738 0.578405 0)
(0.14876 0.646217 0)
(3 1.91674e-14 0)
(3 2.6101e-11 0)
(3 -7.68863e-11 0)
(3 8.86454e-10 0)
(3 2.23617e-09 0)
(3 1.3166e-08 0)
(3 2.53791e-08 0)
(3.00002 1.16677e-06 0)
(2.99993 1.65612e-06 0)
(3.00058 9.81351e-05 0)
(3.00005 0.000474332 0)
(3.01522 -0.00690314 0)
(3.06694 0.0439689 0)
(2.71507 0.176737 0)
(1.19348 0.425309 0)
(0.818225 0.374152 0)
(0.843488 0.391805 0)
(0.81027 0.422084 0)
(0.741687 0.430137 0)
(0.642849 0.438614 0)
(0.58949 0.477501 0)
(0.495529 0.560542 0)
(0.421019 0.630309 0)
(0.326771 0.705419 0)
(0.107669 0.878454 0)
(3 -1.95115e-13 0)
(3 7.5425e-12 0)
(3 5.389e-11 0)
(3 1.36259e-10 0)
(3 8.06893e-09 0)
(3 4.90322e-08 0)
(3 -7.73996e-08 0)
(3.00001 1.51036e-06 0)
(3 1.4391e-06 0)
(3.00009 5.1492e-05 0)
(3.00111 0.000325406 0)
(3.00597 0.0041759 0)
(3.08274 0.0420088 0)
(2.79994 0.169077 0)
(1.44246 0.486444 0)
(0.773842 0.372272 0)
(0.838732 0.402835 0)
(0.823765 0.451936 0)
(0.775228 0.488294 0)
(0.698874 0.499218 0)
(0.620404 0.565189 0)
(0.572525 0.62255 0)
(0.506184 0.710874 0)
(0.521495 0.801199 0)
(0.421991 1.05101 0)
(3 9.76346e-13 0)
(3 -4.38062e-12 0)
(3 9.71027e-11 0)
(3 2.94572e-10 0)
(3 6.67671e-09 0)
(3 6.90278e-08 0)
(3 -3.26032e-07 0)
(3 1.69616e-06 0)
(3.00001 -2.33732e-05 0)
(3.00003 8.40931e-05 0)
(3.00115 -0.000746832 0)
(3.0029 0.00477036 0)
(3.08589 0.0378321 0)
(2.88367 0.144631 0)
(1.82029 0.571885 0)
(0.719325 0.366271 0)
(0.81795 0.395398 0)
(0.82065 0.489944 0)
(0.789571 0.53691 0)
(0.751554 0.548022 0)
(0.671241 0.620716 0)
(0.65848 0.67137 0)
(0.622005 0.769704 0)
(0.715142 0.880537 0)
(0.743798 1.0371 0)
(3 -2.07278e-12 0)
(3 3.36756e-12 0)
(3 3.54498e-12 0)
(3 5.58557e-10 0)
(3 1.02079e-09 0)
(3 2.14204e-08 0)
(3 3.95163e-08 0)
(3 1.20296e-06 0)
(3.00001 -4.57622e-06 0)
(3.00002 7.1358e-05 0)
(3.00087 -0.000509047 0)
(3.00009 0.0030161 0)
(3.07475 0.0282288 0)
(2.97 0.0988853 0)
(2.2531 0.59686 0)
(0.748228 0.411971 0)
(0.792387 0.4121 0)
(0.809324 0.480821 0)
(0.786456 0.552432 0)
(0.78085 0.595403 0)
(0.724834 0.671544 0)
(0.737431 0.708987 0)
(0.727511 0.78974 0)
(0.847 0.8594 0)
(0.893544 0.94724 0)
(3 1.40466e-13 0)
(3 5.60564e-13 0)
(3 9.60207e-12 0)
(3 1.74607e-10 0)
(3 9.64194e-10 0)
(3 9.99534e-09 0)
(3 4.44572e-08 0)
(3 9.18329e-08 0)
(3.00001 2.91138e-06 0)
(2.99998 3.51598e-05 0)
(3.00065 0.000224168 0)
(2.99855 0.00215438 0)
(3.05705 0.0189809 0)
(3.01236 0.080929 0)
(2.50264 0.524792 0)
(0.899774 0.489511 0)
(0.820586 0.446411 0)
(0.812487 0.479811 0)
(0.786907 0.553567 0)
(0.787267 0.607306 0)
(0.768793 0.684655 0)
(0.800638 0.725979 0)
(0.820157 0.789559 0)
(0.922739 0.849388 0)
(0.99123 0.89223 0)
(3 -1.0455e-13 0)
(3 6.53125e-13 0)
(3 4.77274e-12 0)
(3 1.47631e-11 0)
(3 -1.80563e-10 0)
(3 6.75806e-10 0)
(3 -1.34135e-08 0)
(3 4.27316e-07 0)
(3.00002 1.00515e-06 0)
(2.99992 1.73103e-05 0)
(3.001 0.000151281 0)
(2.99715 0.00122824 0)
(3.04975 0.0152649 0)
(3.04124 0.0812949 0)
(2.66521 0.427444 0)
(1.11436 0.58247 0)
(0.853451 0.488055 0)
(0.827532 0.509469 0)
(0.803375 0.559286 0)
(0.804209 0.611072 0)
(0.802403 0.684414 0)
(0.844213 0.725334 0)
(0.877388 0.784561 0)
(0.980652 0.814246 0)
(1.04663 0.878671 0)
(3 -1.67497e-13 0)
(3 1.21785e-12 0)
(3 1.16993e-11 0)
(3 -1.08838e-11 0)
(3 3.26668e-10 0)
(3 8.34024e-10 0)
(3 2.85012e-08 0)
(3 7.18076e-08 0)
(3.00002 2.40342e-06 0)
(2.99994 1.04544e-05 0)
(3.00035 -8.70668e-05 0)
(3.00085 0.001246 0)
(3.01459 -0.00587571 0)
(3.06942 0.0716528 0)
(2.8064 0.359115 0)
(1.42227 0.683209 0)
(0.871267 0.546257 0)
(0.860757 0.553471 0)
(0.840992 0.585348 0)
(0.837605 0.623046 0)
(0.840655 0.683132 0)
(0.882347 0.720006 0)
(0.921472 0.771083 0)
(1.02093 0.790232 0)
(1.08633 0.857616 0)
(3 1.08459e-13 0)
(3 8.95205e-13 0)
(3 -4.42256e-11 0)
(3 1.05825e-10 0)
(3 -5.39968e-10 0)
(3 4.26961e-09 0)
(3 1.1097e-07 0)
(3 -1.69555e-07 0)
(3 3.23689e-06 0)
(3.00001 -4.81144e-06 0)
(2.99998 0.000127196 0)
(3.00198 0.000712677 0)
(2.99762 0.00836736 0)
(3.09037 0.0600893 0)
(2.93498 0.281107 0)
(1.90221 0.787914 0)
(0.87614 0.585447 0)
(0.898532 0.582785 0)
(0.897128 0.605358 0)
(0.885662 0.643662 0)
(0.888715 0.683971 0)
(0.926766 0.711021 0)
(0.964197 0.756995 0)
(1.06163 0.761824 0)
(1.12267 0.822375 0)
(3 2.44829e-14 0)
(3 -1.75592e-13 0)
(3 2.13271e-12 0)
(3 8.1945e-12 0)
(3 1.20862e-10 0)
(3 6.11681e-10 0)
(3 2.43816e-10 0)
(3 2.8866e-08 0)
(3 1.15791e-06 0)
(3.00003 5.74333e-06 0)
(2.99994 6.00994e-05 0)
(3.00105 0.000506668 0)
(2.99864 0.00379293 0)
(3.07633 0.0377782 0)
(3.01466 0.179187 0)
(2.41108 0.817997 0)
(1.01573 0.665509 0)
(0.951195 0.619197 0)
(0.947719 0.628409 0)
(0.94204 0.655046 0)
(0.942506 0.687581 0)
(0.974481 0.707553 0)
(1.00919 0.744481 0)
(1.09778 0.743526 0)
(1.15487 0.797589 0)
(3 -1.48797e-14 0)
(3 9.42696e-14 0)
(3 -3.36882e-14 0)
(3 3.70216e-12 0)
(3 1.85121e-10 0)
(3 -1.33436e-10 0)
(3 1.77625e-08 0)
(3 1.03017e-07 0)
(3 -1.29438e-07 0)
(3.00003 3.98267e-06 0)
(2.99989 2.35117e-05 0)
(3.00102 0.000284573 0)
(2.99839 0.00212096 0)
(3.04088 -0.0556053 0)
(3.06088 0.17318 0)
(2.71999 0.660891 0)
(1.31573 0.744176 0)
(1.00263 0.65495 0)
(0.995591 0.643665 0)
(0.998663 0.658127 0)
(1.00274 0.687327 0)
(1.03183 0.703155 0)
(1.06056 0.735331 0)
(1.13971 0.727758 0)
(1.19031 0.779019 0)
(3 -2.14975e-14 0)
(3 1.80973e-13 0)
(3 1.56789e-12 0)
(3 2.30296e-11 0)
(3 -7.37876e-12 0)
(3 1.42414e-09 0)
(3 1.33631e-08 0)
(3 7.95616e-08 0)
(3 -6.82139e-08 0)
(3 3.61529e-06 0)
(3.00001 8.59971e-06 0)
(3.00017 0.000113876 0)
(3.00122 0.000844366 0)
(3.00531 0.0103271 0)
(3.10343 0.0985371 0)
(2.92343 0.504425 0)
(1.75943 0.8348 0)
(1.03762 0.6841 0)
(1.03553 0.667177 0)
(1.04575 0.672484 0)
(1.05359 0.693105 0)
(1.07911 0.704149 0)
(1.10472 0.730667 0)
(1.17034 0.722989 0)
(1.22084 0.762342 0)
(3 8.80832e-15 0)
(3 1.31385e-13 0)
(3 1.55636e-12 0)
(3 8.70605e-12 0)
(3 7.98145e-11 0)
(3 9.12782e-10 0)
(3 -2.22601e-09 0)
(3 1.65408e-08 0)
(3 1.49949e-07 0)
(2.99999 1.96397e-06 0)
(3.00007 1.19266e-05 0)
(2.99984 0.000121737 0)
(3.00179 0.000877817 0)
(2.99692 0.00737864 0)
(3.11957 0.0622849 0)
(3.03368 0.293458 0)
(2.33858 0.916027 0)
(1.11171 0.742747 0)
(1.07381 0.704667 0)
(1.08002 0.700305 0)
(1.09114 0.710732 0)
(1.11465 0.715187 0)
(1.1392 0.730348 0)
(1.19332 0.719295 0)
(1.24027 0.748288 0)
(3 1.13509e-14 0)
(3 -4.55117e-14 0)
(3 5.25064e-13 0)
(3 -1.54291e-13 0)
(3 4.70666e-11 0)
(3 8.95926e-11 0)
(3 2.91459e-09 0)
(3 2.1283e-08 0)
(3 1.3997e-07 0)
(3 -1.48497e-07 0)
(3.00003 8.52062e-06 0)
(2.99992 3.84111e-05 0)
(3.00091 0.000149458 0)
(3.00093 0.00369587 0)
(3.03351 -0.10514 0)
(3.08608 0.207912 0)
(2.71654 0.815176 0)
(1.3872 0.827845 0)
(1.11453 0.745886 0)
(1.11223 0.708179 0)
(1.12386 0.708921 0)
(1.14573 0.712034 0)
(1.16752 0.727348 0)
(1.21197 0.7204 0)
(1.25155 0.744971 0)
(3 9.93086e-16 0)
(3 1.32287e-14 0)
(3 1.69284e-13 0)
(3 1.18599e-12 0)
(3 1.55846e-11 0)
(3 -6.72471e-11 0)
(3 1.34617e-09 0)
(3 3.15606e-09 0)
(3 6.67709e-08 0)
(3 5.25902e-08 0)
(3 3.38179e-06 0)
(3.00003 7.6486e-07 0)
(2.99996 0.000275144 0)
(3.00454 0.00160056 0)
(2.9784 0.0179761 0)
(3.15146 0.133133 0)
(2.97643 0.603334 0)
(1.85599 0.889092 0)
(1.16051 0.766996 0)
(1.14457 0.728836 0)
(1.15254 0.725816 0)
(1.16961 0.726198 0)
(1.18823 0.737505 0)
(1.22586 0.729177 0)
(1.26097 0.744606 0)
(3 -4.14922e-16 0)
(3 9.1468e-15 0)
(3 -2.80933e-14 0)
(3 1.09648e-12 0)
(3 3.83897e-13 0)
(3 4.08812e-11 0)
(3 3.84214e-10 0)
(3 2.13333e-09 0)
(3 2.36877e-08 0)
(3 1.62881e-07 0)
(2.99999 1.74735e-06 0)
(3.00005 1.24349e-05 0)
(2.99987 8.98224e-05 0)
(3.00181 0.000911122 0)
(2.99759 0.00456817 0)
(3.1068 0.0702634 0)
(3.07543 0.389507 0)
(2.43672 0.965269 0)
(1.2638 0.810967 0)
(1.18648 0.774902 0)
(1.1824 0.741978 0)
(1.19785 0.738179 0)
(1.21544 0.74446 0)
(1.2457 0.735002 0)
(1.27348 0.743549 0)
(3 3.79692e-16 0)
(3 8.07571e-16 0)
(3 3.40555e-14 0)
(3 3.1183e-13 0)
(3 4.08264e-12 0)
(3 -1.78768e-11 0)
(3 2.67595e-10 0)
(3 1.39867e-10 0)
(3 1.47792e-08 0)
(3 1.86047e-07 0)
(3 -3.11794e-07 0)
(3.00001 6.08735e-06 0)
(3.00003 2.95955e-05 0)
(3.00038 0.000103801 0)
(3.00167 0.00319478 0)
(3.02872 0.00758275 0)
(3.13912 0.214758 0)
(2.84449 0.813031 0)
(1.60714 0.888932 0)
(1.22509 0.811797 0)
(1.20638 0.767983 0)
(1.21675 0.762504 0)
(1.23068 0.764702 0)
(1.25709 0.754461 0)
(1.28306 0.755923 0)
(3 7.59371e-16 0)
(3 2.92581e-15 0)
(3 5.87511e-14 0)
(3 -3.15235e-13 0)
(3 1.97168e-12 0)
(3 2.70276e-12 0)
(3 8.71959e-11 0)
(3 7.76e-10 0)
(3 4.74376e-10 0)
(3 5.92811e-08 0)
(3 4.3188e-07 0)
(2.99999 3.77159e-06 0)
(3.00013 2.9867e-05 0)
(2.99948 0.000258627 0)
(3.00418 0.00200406 0)
(2.995 0.017445 0)
(3.15753 0.129177 0)
(3.07909 0.587546 0)
(2.20815 0.95315 0)
(1.27704 0.830127 0)
(1.23291 0.800708 0)
(1.24412 0.773571 0)
(1.25603 0.769183 0)
(1.27896 0.757508 0)
(1.30268 0.755154 0)
(3 1.13254e-16 0)
(3 6.87771e-18 0)
(3 5.72699e-15 0)
(3 5.61244e-14 0)
(3 4.15672e-13 0)
(3 3.86394e-12 0)
(3 4.04897e-11 0)
(3 5.55012e-11 0)
(3 1.0312e-09 0)
(3 2.40419e-08 0)
(3 2.79705e-07 0)
(3 -3.8816e-07 0)
(3.00001 1.3906e-05 0)
(3.00004 4.0472e-05 0)
(3.00063 0.000154398 0)
(3.00285 0.00595506 0)
(3.04834 -0.00426221 0)
(3.15906 0.346371 0)
(2.73673 0.967417 0)
(1.52856 0.904386 0)
(1.27715 0.852108 0)
(1.26373 0.798961 0)
(1.27396 0.793262 0)
(1.29388 0.780221 0)
(1.31462 0.775741 0)
(3 1.02697e-16 0)
(3 1.40146e-15 0)
(3 -1.15549e-15 0)
(3 5.7257e-14 0)
(3 -7.68302e-15 0)
(3 2.41912e-12 0)
(3 1.3362e-11 0)
(3 1.61572e-10 0)
(3 1.33087e-09 0)
(3 6.668e-09 0)
(3 9.2143e-08 0)
(3 6.96198e-07 0)
(2.99998 6.15668e-06 0)
(3.0002 4.67508e-05 0)
(2.99915 0.000400882 0)
(3.0067 0.00300343 0)
(2.98954 0.0252062 0)
(3.21363 0.18294 0)
(3.05774 0.730098 0)
(2.05287 0.963769 0)
(1.3515 0.868466 0)
(1.29676 0.831501 0)
(1.30906 0.801827 0)
(1.32338 0.788089 0)
(1.34317 0.775609 0)
(3 -4.93826e-17 0)
(3 1.37481e-16 0)
(3 -2.16076e-15 0)
(3 1.41672e-14 0)
(3 5.66154e-14 0)
(3 7.37445e-13 0)
(3 4.88702e-12 0)
(3 5.53691e-11 0)
(3 -5.82194e-10 0)
(3 5.6719e-09 0)
(3 3.23908e-08 0)
(3 4.53575e-07 0)
(3 -4.14097e-07 0)
(3.00001 1.71798e-05 0)
(3.00006 6.22813e-05 0)
(3.00091 -9.30712e-05 0)
(3.00341 0.00859384 0)
(3.0698 -0.019899 0)
(3.18905 0.462299 0)
(2.646 1.03592 0)
(1.52711 0.916382 0)
(1.34188 0.887339 0)
(1.32739 0.826163 0)
(1.3388 0.815105 0)
(1.35758 0.797149 0)
(3 -8.37552e-17 0)
(3 -4.75801e-16 0)
(3 5.36732e-17 0)
(3 4.56286e-15 0)
(3 -2.4807e-14 0)
(3 2.41348e-13 0)
(3 3.05642e-12 0)
(3 1.00924e-11 0)
(3 2.00193e-10 0)
(3 1.74255e-09 0)
(3 1.47144e-08 0)
(3 1.29723e-07 0)
(3 9.74929e-07 0)
(2.99998 8.51103e-06 0)
(3.00015 6.29749e-05 0)
(2.9987 0.000538206 0)
(3.00913 0.00389383 0)
(2.98265 0.0325897 0)
(3.25648 0.234328 0)
(3.05277 0.833511 0)
(2.01353 0.992076 0)
(1.41548 0.911016 0)
(1.35644 0.867196 0)
(1.37133 0.822228 0)
(1.38599 0.804297 0)
(3 3.68993e-17 0)
(3 -7.34113e-18 0)
(3 1.17829e-16 0)
(3 -3.96712e-16 0)
(3 1.1842e-14 0)
(3 9.92916e-14 0)
(3 8.90234e-13 0)
(3 6.20074e-12 0)
(3 6.16849e-11 0)
(3 -6.50738e-10 0)
(3 6.36786e-09 0)
(3 -2.92375e-09 0)
(3 3.5273e-07 0)
(3 1.61536e-06 0)
(3.00002 1.87706e-05 0)
(3.00007 6.73312e-05 0)
(3.00116 -0.000921362 0)
(3.00335 0.00967448 0)
(3.08888 -0.0168011 0)
(3.23168 0.538797 0)
(2.63406 1.04873 0)
(1.57996 0.939751 0)
(1.40805 0.909636 0)
(1.3896 0.84225 0)
(1.40038 0.825279 0)
(3 -1.00952e-16 0)
(3 -1.05664e-16 0)
(3 -8.97791e-17 0)
(3 2.77054e-16 0)
(3 9.08873e-17 0)
(3 5.63954e-14 0)
(3 1.13516e-13 0)
(3 4.75939e-12 0)
(3 7.19944e-13 0)
(3 2.79535e-10 0)
(3 2.07646e-09 0)
(3 1.90084e-08 0)
(3 1.61602e-07 0)
(3 1.21083e-06 0)
(3.00003 1.03476e-05 0)
(2.99997 6.67687e-05 0)
(2.9984 0.000649244 0)
(3.01024 0.00455465 0)
(2.98204 0.0385596 0)
(3.27522 0.271874 0)
(3.06939 0.895822 0)
(2.0586 1.02596 0)
(1.47808 0.94541 0)
(1.4196 0.891611 0)
(1.4243 0.833151 0)
(3 -1.85422e-17 0)
(3 -3.66801e-17 0)
(3 1.14097e-16 0)
(3 -1.7712e-16 0)
(3 2.55367e-15 0)
(3 2.84319e-14 0)
(3 1.80658e-13 0)
(3 2.42592e-12 0)
(3 9.74593e-12 0)
(3 8.66123e-11 0)
(3 1.01722e-09 0)
(3 6.05188e-09 0)
(3 6.47507e-08 0)
(3 1.33617e-07 0)
(3 6.234e-06 0)
(3.00002 2.8464e-05 0)
(3.00006 8.27818e-05 0)
(3.00125 -0.00235558 0)
(3.00306 0.00970837 0)
(3.09906 0.00253184 0)
(3.26661 0.54032 0)
(2.68269 1.04023 0)
(1.65458 0.966143 0)
(1.46842 0.91655 0)
(1.43128 0.869268 0)
(3 8.13874e-31 0)
(3 -7.54537e-17 0)
(3 -3.47148e-16 0)
(3 -3.10441e-16 0)
(3 5.40335e-16 0)
(3 1.31149e-14 0)
(3 3.39597e-14 0)
(3 5.37461e-13 0)
(3 5.27083e-12 0)
(3 -8.09697e-11 0)
(3 4.73543e-10 0)
(3 2.17469e-09 0)
(3 4.04751e-09 0)
(3 1.96832e-07 0)
(3 -2.63528e-06 0)
(3 1.05832e-05 0)
(3.00003 8.06215e-05 0)
(2.99859 0.000683289 0)
(3.00992 0.00466219 0)
(2.98537 0.0397469 0)
(3.28547 0.300695 0)
(3.10296 0.91889 0)
(2.15274 1.06729 0)
(1.52147 0.951509 0)
(1.46351 0.920593 0)
(3 8.1719e-17 0)
(3 2.09506e-16 0)
(3 2.00511e-16 0)
(3 2.07359e-16 0)
(3 2.72668e-16 0)
(3 2.88685e-15 0)
(3 1.89669e-14 0)
(3 1.08402e-13 0)
(3 1.29669e-12 0)
(3 9.70869e-12 0)
(3 8.08951e-11 0)
(3 6.96713e-10 0)
(3 4.60503e-09 0)
(3 1.1575e-08 0)
(3 3.91304e-07 0)
(3 2.66247e-06 0)
(3.00004 2.09679e-05 0)
(3 -4.28536e-05 0)
(3.0013 -0.00664801 0)
(3.00232 0.0108048 0)
(3.1049 0.00721375 0)
(3.28388 0.531237 0)
(2.76737 1.05849 0)
(1.74471 0.985701 0)
(1.4929 0.940184 0)
(3 3.93879e-17 0)
(3 -1.97618e-17 0)
(3 -1.59332e-16 0)
(3 -2.69383e-16 0)
(3 1.36561e-17 0)
(3 1.25651e-15 0)
(3 3.12155e-15 0)
(3 5.1064e-14 0)
(3 4.41589e-13 0)
(3 -1.90278e-12 0)
(3 3.22171e-11 0)
(3 9.94454e-11 0)
(3 -2.51926e-10 0)
(3 1.03811e-08 0)
(3 -6.97507e-09 0)
(3 5.55358e-07 0)
(3 8.74071e-06 0)
(3.0001 6.49872e-05 0)
(2.99881 0.00062797 0)
(3.00971 0.0043053 0)
(2.98407 0.038134 0)
(3.2933 0.287301 0)
(3.15262 0.897618 0)
(2.2868 1.08833 0)
(1.54234 0.964976 0)
(3 -9.00566e-17 0)
(3 -3.64753e-16 0)
(3 -5.87126e-16 0)
(3 -6.90957e-16 0)
(3 -7.08811e-16 0)
(3 -5.55432e-16 0)
(3 9.9481e-16 0)
(3 1.49389e-14 0)
(3 6.31133e-14 0)
(3 4.78968e-13 0)
(3 7.70659e-12 0)
(3 3.05173e-11 0)
(3 5.08805e-10 0)
(3 4.27753e-09 0)
(3 3.00946e-08 0)
(3 2.06202e-07 0)
(3 2.92549e-07 0)
(3.00003 6.64037e-06 0)
(2.99993 -0.000124661 0)
(3.0017 -0.00293893 0)
(3.00209 0.0101299 0)
(3.09604 0.019282 0)
(3.29874 0.494205 0)
(2.86811 1.05733 0)
(1.82592 1.02311 0)
(3 -6.72498e-17 0)
(3 -7.75296e-17 0)
(3 -1.66612e-17 0)
(3 5.84833e-17 0)
(3 -2.27886e-17 0)
(3 -2.28796e-16 0)
(3 5.01105e-16 0)
(3 6.95796e-15 0)
(3 9.80158e-15 0)
(3 4.05817e-13 0)
(3 1.88492e-12 0)
(3 5.97475e-12 0)
(3 1.88029e-10 0)
(3 1.16499e-09 0)
(3 1.47512e-08 0)
(3 9.49493e-08 0)
(3 5.47385e-07 0)
(2.99999 7.67838e-06 0)
(3.00009 4.88824e-05 0)
(2.99901 0.000546019 0)
(3.00883 0.00374306 0)
(2.9839 0.0334905 0)
(3.28663 0.25571 0)
(3.18706 0.847574 0)
(2.42421 1.12676 0)
(3 -8.58855e-17 0)
(3 -1.03852e-16 0)
(3 2.97128e-16 0)
(3 5.09068e-16 0)
(3 4.2453e-16 0)
(3 3.95043e-16 0)
(3 -3.56887e-16 0)
(3 4.60268e-16 0)
(3 2.55149e-14 0)
(3 1.63415e-13 0)
(3 2.36415e-12 0)
(3 1.16344e-11 0)
(3 1.35815e-10 0)
(3 1.89931e-10 0)
(3 3.31865e-09 0)
(3 2.96922e-08 0)
(3 2.37529e-07 0)
(3 -9.26432e-07 0)
(3.00001 2.20514e-06 0)
(3.00004 0.000134786 0)
(3.00121 -0.00485049 0)
(3.0019 0.00857847 0)
(3.08189 0.015848 0)
(3.27447 0.44701 0)
(2.90991 1.04129 0)
(3 1.58519e-16 0)
(3 5.25669e-16 0)
(3 6.58307e-16 0)
(3 5.11007e-16 0)
(3 4.33034e-16 0)
(3 4.30392e-16 0)
(3 -4.48713e-16 0)
(3 8.19785e-16 0)
(3 5.94506e-15 0)
(3 1.13538e-13 0)
(3 6.62955e-13 0)
(3 8.24644e-12 0)
(3 5.97898e-11 0)
(3 1.41117e-10 0)
(3 1.61042e-09 0)
(3 1.50381e-08 0)
(3 6.162e-08 0)
(3 -5.77408e-07 0)
(3 8.30786e-06 0)
(3.00005 6.01805e-05 0)
(2.99887 0.000523476 0)
(3.00846 0.00352504 0)
(2.98768 0.0311017 0)
(3.2655 0.234998 0)
(3.16787 0.802378 0)
(3 -4.39508e-17 0)
(3 6.59985e-17 0)
(3 1.45214e-17 0)
(3 1.67206e-17 0)
(3 -2.69661e-16 0)
(3 -4.62132e-16 0)
(3 -2.9645e-16 0)
(3 -1.76842e-16 0)
(3 2.93259e-15 0)
(3 1.48482e-14 0)
(3 2.87566e-13 0)
(3 1.63086e-12 0)
(3 1.85484e-11 0)
(3 4.61899e-11 0)
(3 7.11295e-10 0)
(3 -1.01762e-08 0)
(3 3.6763e-08 0)
(3 2.70913e-07 0)
(3 1.50939e-06 0)
(3.00001 3.20004e-05 0)
(3.00004 -7.60988e-05 0)
(3.00098 -0.00109311 0)
(3.00257 0.00797039 0)
(3.07918 0.00663553 0)
(3.24751 0.427599 0)
(3 5.07324e-17 0)
(3 -1.98392e-16 0)
(3 -3.07586e-16 0)
(3 -2.57805e-16 0)
(3 1.93427e-17 0)
(3 3.26082e-16 0)
(3 6.16459e-16 0)
(3 1.01927e-15 0)
(3 2.95078e-15 0)
(3 1.29738e-15 0)
(3 1.23997e-13 0)
(3 2.85914e-13 0)
(3 5.9945e-12 0)
(3 2.46215e-11 0)
(3 2.47149e-10 0)
(3 1.94659e-09 0)
(3 4.22678e-09 0)
(3 1.10878e-07 0)
(3 8.46173e-07 0)
(2.99997 9.2781e-06 0)
(3.00021 5.84593e-05 0)
(2.99881 0.000542897 0)
(3.0082 0.00365519 0)
(2.98519 0.0315325 0)
(3.29968 0.230377 0)
(3 2.56391e-16 0)
(3 3.6771e-16 0)
(3 4.97837e-16 0)
(3 3.72585e-16 0)
(3 6.72815e-16 0)
(3 7.79276e-16 0)
(3 6.36801e-16 0)
(3 8.81291e-16 0)
(3 1.5634e-15 0)
(3 5.8941e-15 0)
(3 5.27475e-14 0)
(3 2.13481e-14 0)
(3 2.70774e-12 0)
(3 -9.42475e-12 0)
(3 1.64725e-10 0)
(3 7.88041e-10 0)
(3 -4.56518e-09 0)
(3 1.04145e-07 0)
(3 6.31114e-07 0)
(2.99999 3.91911e-07 0)
(3.00008 2.82665e-05 0)
(2.99983 6.72301e-05 0)
(3.00161 -0.00137903 0)
(3.00469 0.0127411 0)
(3.06559 -0.109069 0)
(3 -1.5036e-16 0)
(3 -1.71318e-16 0)
(3 -1.15411e-16 0)
(3 -1.09452e-16 0)
(3 -1.56329e-16 0)
(3 -9.33473e-17 0)
(3 -9.7797e-17 0)
(3 -7.37399e-17 0)
(3 -2.7487e-16 0)
(3 1.79364e-16 0)
(3 8.83225e-15 0)
(3 1.43765e-13 0)
(3 4.03301e-13 0)
(3 8.76135e-12 0)
(3 6.31478e-11 0)
(3 4.17522e-10 0)
(3 6.21594e-09 0)
(3 3.90607e-08 0)
(3 2.77292e-07 0)
(3 3.9516e-07 0)
(3.00001 5.35424e-06 0)
(3.00007 3.08687e-05 0)
(2.99935 0.000566246 0)
(3.01201 0.00370521 0)
(2.94515 0.0321653 0)
(3 -2.05145e-16 0)
(3 -3.34051e-16 0)
(3 -5.23389e-16 0)
(3 -5.53538e-16 0)
(3 -6.51378e-16 0)
(3 -6.61311e-16 0)
(3 -6.54985e-16 0)
(3 -5.75095e-16 0)
(3 -3.27136e-16 0)
(3 4.50537e-16 0)
(3 2.3465e-15 0)
(3 4.95387e-14 0)
(3 2.19094e-13 0)
(3 3.37133e-12 0)
(3 2.3285e-11 0)
(3 -1.2103e-11 0)
(3 9.48248e-10 0)
(3 3.06465e-10 0)
(3 7.05013e-08 0)
(3 2.77162e-07 0)
(2.99999 2.86592e-06 0)
(3.00012 1.8899e-05 0)
(2.99964 9.77279e-05 0)
(3.0038 0.00161023 0)
(2.9941 0.00468117 0)
(3 5.38535e-17 0)
(3 4.53679e-17 0)
(3 4.45349e-17 0)
(3 3.66503e-17 0)
(3 -5.85745e-17 0)
(3 -2.43546e-16 0)
(3 -4.86945e-16 0)
(3 -7.08784e-16 0)
(3 -6.68057e-16 0)
(3 -1.23516e-15 0)
(3 1.03531e-15 0)
(3 2.47086e-14 0)
(3 2.81163e-13 0)
(3 -2.26017e-13 0)
(3 7.93752e-12 0)
(3 -1.04995e-11 0)
(3 3.59427e-10 0)
(3 1.94857e-09 0)
(3 1.76617e-08 0)
(3 1.14073e-07 0)
(3 -1.10378e-06 0)
(3.00001 4.38065e-06 0)
(3.00004 4.51839e-05 0)
(3.00062 -0.000648324 0)
(3.00141 0.00596543 0)
(3 6.27188e-17 0)
(3 1.34734e-16 0)
(3 -3.62914e-17 0)
(3 2.44767e-16 0)
(3 8.97919e-16 0)
(3 1.24928e-15 0)
(3 1.16107e-15 0)
(3 5.76322e-16 0)
(3 2.22663e-16 0)
(3 -5.06426e-16 0)
(3 -5.52159e-17 0)
(3 4.35116e-15 0)
(3 1.0324e-14 0)
(3 4.11318e-13 0)
(3 3.27479e-12 0)
(3 1.76551e-11 0)
(3 2.4379e-10 0)
(3 2.14621e-09 0)
(3 1.28416e-09 0)
(3 1.23158e-07 0)
(3 4.8995e-07 0)
(3.00002 5.78217e-06 0)
(2.99997 3.17795e-05 0)
(2.99879 0.000375192 0)
(3.00658 0.00245631 0)
(3 5.10878e-17 0)
(3 1.56921e-16 0)
(3 2.59282e-16 0)
(3 2.6451e-16 0)
(3 1.39225e-16 0)
(3 -5.37395e-17 0)
(3 -3.01497e-16 0)
(3 -4.21215e-16 0)
(3 -5.80439e-16 0)
(3 -7.33113e-16 0)
(3 -6.97463e-16 0)
(3 1.29377e-15 0)
(3 2.76118e-14 0)
(3 1.53369e-13 0)
(3 9.87694e-13 0)
(3 6.46106e-12 0)
(3 6.95209e-11 0)
(3 1.10325e-09 0)
(3 3.11464e-09 0)
(3 5.62193e-08 0)
(3 3.13414e-07 0)
(2.99999 5.03285e-06 0)
(3.00008 3.11767e-05 0)
(2.9997 1.30425e-05 0)
(3.00291 0.000993067 0)
(3 -6.24877e-17 0)
(3 -2.98284e-16 0)
(3 1.38783e-16 0)
(3 -7.19826e-16 0)
(3 -1.28867e-15 0)
(3 -1.59515e-15 0)
(3 -1.4775e-15 0)
(3 -1.29766e-15 0)
(3 -1.11509e-15 0)
(3 -8.69879e-16 0)
(3 -6.05807e-16 0)
(3 7.50368e-16 0)
(3 7.02796e-15 0)
(3 8.64196e-14 0)
(3 7.19493e-14 0)
(3 1.70764e-12 0)
(3 2.29467e-11 0)
(3 1.38616e-10 0)
(3 2.11898e-09 0)
(3 1.19016e-09 0)
(3 2.40825e-07 0)
(3 -1.48726e-07 0)
(3.00001 6.93936e-06 0)
(2.99998 6.3446e-06 0)
(3.00098 -0.000141388 0)
(3 -1.02638e-16 0)
(3 -2.56582e-16 0)
(3 -2.84576e-16 0)
(3 -7.68237e-16 0)
(3 -8.47883e-16 0)
(3 -7.89812e-16 0)
(3 -6.34118e-16 0)
(3 -3.56808e-16 0)
(3 -2.54621e-16 0)
(3 -8.79029e-17 0)
(3 1.62031e-16 0)
(3 9.09009e-16 0)
(3 -6.66871e-16 0)
(3 2.39309e-14 0)
(3 -3.29941e-14 0)
(3 -7.90675e-13 0)
(3 2.20605e-12 0)
(3 5.45316e-11 0)
(3 1.03356e-09 0)
(3 -2.41034e-09 0)
(3 4.9654e-08 0)
(3 1.193e-08 0)
(2.99998 2.81592e-06 0)
(3.00013 -1.19205e-05 0)
(3.00013 5.7941e-05 0)
(1.10296 0.921815 0)
(1.69028 0.892909 0)
(1.34969 0.573086 0)
(-0.037151 0.290776 0)
(-0.218726 -0.0114191 0)
(-0.367319 0.0186731 0)
(-0.460205 0.0274848 0)
(-0.486871 0.00610983 0)
(-0.50339 0.0177109 0)
(-0.504917 0.0220534 0)
(-0.506022 0.0231533 0)
(-0.47816 0.0103432 0)
(-0.429848 -0.00280225 0)
(-0.354984 -0.0173085 0)
(-0.269039 -0.0253928 0)
(-0.169627 -0.0373787 0)
(-0.0575537 -0.0415049 0)
(0.0651765 -0.0422341 0)
(0.173975 -0.0452867 0)
(0.277218 -0.0473264 0)
(0.371104 -0.0435878 0)
(0.453 -0.0375039 0)
(0.524172 -0.0339782 0)
(0.586712 -0.0316607 0)
(0.640353 -0.029592 0)
(0.68817 -0.0275207 0)
(0.732707 -0.0260457 0)
(0.774845 -0.0247286 0)
(0.815004 -0.0233306 0)
(0.853533 -0.0219156 0)
(0.890763 -0.0206505 0)
(0.927048 -0.0194818 0)
(0.962696 -0.018575 0)
(0.997931 -0.0177376 0)
(1.03302 -0.0169081 0)
(1.06815 -0.0160073 0)
(1.10343 -0.0150065 0)
(1.13876 -0.013872 0)
(1.17377 -0.0124421 0)
(1.20806 -0.0110752 0)
(1.24087 -0.00993518 0)
(1.27221 -0.00911251 0)
(1.30153 -0.00845412 0)
(1.32879 -0.00802975 0)
(1.35381 -0.00782232 0)
(1.37688 -0.00780058 0)
(1.39813 -0.00787724 0)
(1.41767 -0.00793472 0)
(1.43547 -0.00784872 0)
(1.4514 -0.00759186 0)
(1.46554 -0.00716193 0)
(1.47776 -0.00653542 0)
(1.48803 -0.00574087 0)
(1.49648 -0.00486923 0)
(1.50319 -0.00398912 0)
(1.50842 -0.00319541 0)
(1.51238 -0.00252629 0)
(1.51524 -0.00199039 0)
(1.51663 -0.00159391 0)
(1.51644 -0.00135252 0)
(1.51466 -0.00105079 0)
(1.50881 -0.000790561 0)
(1.49463 -0.000658801 0)
(1.46232 -0.000649829 0)
(1.3851 -0.00069979 0)
(1.18841 -0.000696538 0)
(0.73714 -0.000464223 0)
(0.236913 -0.000124641 0)
(0.0409499 -1.52768e-05 0)
(0.00507012 -1.54812e-06 0)
(0.000566069 -1.61695e-07 0)
(6.21208e-05 -1.68535e-08 0)
(6.80249e-06 -1.76447e-09 0)
(7.44528e-07 -1.84455e-10 0)
(8.14915e-08 -1.93372e-11 0)
(8.91885e-09 -2.02738e-12 0)
(9.76134e-10 -2.1341e-13 0)
(1.06826e-10 -2.27214e-14 0)
(1.16898e-11 -2.69424e-15 0)
(1.2773e-12 -1.24448e-15 0)
(1.37304e-13 -9.3657e-16 0)
(1.21498e-14 -5.77338e-16 0)
(-6.79975e-16 -1.02638e-15 0)
(-3.57949e-15 -9.75059e-16 0)
(-3.91307e-15 -4.8753e-16 0)
(-2.78405e-15 -1.02638e-16 0)
(-2.07842e-15 3.84892e-16 0)
(-1.93729e-15 -1.20599e-15 0)
(-8.33932e-16 7.31294e-16 0)
(-1.84748e-15 -1.32146e-15 0)
(-2.39916e-15 -3.33573e-16 0)
(-2.61726e-15 2.46331e-15 0)
(-2.75839e-15 -8.21102e-16 0)
(-1.27014e-15 -1.53957e-15 0)
(2.27086e-15 5.90167e-16 0)
(3.84892e-16 2.05276e-16 0)
(8.08273e-16 -3.84892e-16 0)
(3.46403e-15 -1.30863e-15 0)
(4.45191e-15 -1.7705e-15 0)
(3.70779e-15 1.27014e-15 0)
(1.25857 0.878059 0)
(1.89467 0.786948 0)
(1.85026 0.561586 0)
(1.32585 0.504066 0)
(1.01275 0.332929 0)
(0.866717 0.185802 0)
(0.661739 0.113104 0)
(0.587932 0.0638099 0)
(0.487016 0.0435011 0)
(0.452904 0.0422635 0)
(0.457089 0.0275932 0)
(0.480851 0.00558122 0)
(0.536451 -0.0191418 0)
(0.601214 -0.0437866 0)
(0.659484 -0.0635238 0)
(0.71893 -0.0915275 0)
(0.767277 -0.114563 0)
(0.810603 -0.120795 0)
(0.844368 -0.116866 0)
(0.87106 -0.108615 0)
(0.898022 -0.100463 0)
(0.926119 -0.0901065 0)
(0.952515 -0.0788625 0)
(0.9783 -0.0683898 0)
(1.00343 -0.0586512 0)
(1.0249 -0.0530715 0)
(1.04398 -0.0498536 0)
(1.06203 -0.0473183 0)
(1.07977 -0.0451897 0)
(1.09764 -0.043223 0)
(1.11591 -0.0414146 0)
(1.13482 -0.040099 0)
(1.15453 -0.0389962 0)
(1.1748 -0.0378248 0)
(1.19569 -0.0370574 0)
(1.21714 -0.0369592 0)
(1.23928 -0.0375937 0)
(1.26233 -0.0381107 0)
(1.28633 -0.0381103 0)
(1.31118 -0.0374159 0)
(1.33616 -0.0359889 0)
(1.35989 -0.0338193 0)
(1.38178 -0.0311477 0)
(1.40143 -0.028263 0)
(1.41837 -0.0254301 0)
(1.43279 -0.0228099 0)
(1.44505 -0.0203396 0)
(1.4555 -0.0179537 0)
(1.46467 -0.0156203 0)
(1.47265 -0.0133958 0)
(1.47976 -0.0112449 0)
(1.48612 -0.0091842 0)
(1.49176 -0.00732049 0)
(1.49672 -0.00567022 0)
(1.50107 -0.00426789 0)
(1.50485 -0.00313489 0)
(1.50814 -0.00230122 0)
(1.51092 -0.00168134 0)
(1.51266 -0.00118478 0)
(1.5128 -0.00088468 0)
(1.51167 -0.000626077 0)