/*--------------------------------*- C++ -*----------------------------------*\
| =========                 |                                                 |
| \\      /  F ield         | OpenFOAM: The Open Source CFD Toolbox           |
|  \\    /   O peration     | Version:  v2106                                 |
|   \\  /    A nd           | Website:  www.openfoam.com                      |
|    \\/     M anipulation  |                                                 |
\*---------------------------------------------------------------------------*/
FoamFile
{
    version     2.0;
    format      ascii;
    arch        "LSB;label=32;scalar=64";
    class       volScalarField;
    location    "5";
    object      p;
}
// * * * * * * * * * * * * * * * * * * * * * * * * * * * * * * * * * * * * * //

dimensions      [1 -1 -2 0 0 0 0];

internalField   nonuniform List<scalar> 
5250
(
1
1
1
1
1
1
1
1
1.00002
1.0001
1.00135
1.00967
1.10429
1.69936
4.15396
10.6715
11.4221
11.0586
11.3592
11.6167
11.7263
11.8938
12.0108
12.1019
12.1519
1
1
1
1
1
1
1
1
1.00002
1.00009
1.00131
1.00943
1.10145
1.68392
4.09709
10.5775
11.4628
11.0388
11.3477
11.602
11.7083
11.8775
11.9954
12.0859
12.1355
1
1
1
1
1
1
1
1
1.00002
1.00008
1.00131
1.00876
1.09874
1.6504
3.96496
10.326
11.5365
10.9715
11.3016
11.5527
11.6556
11.8195
11.9326
12.0172
12.0613
1
1
1
1
1
1
1
1
1.00001
1.00012
1.00111
1.00926
1.08692
1.59864
3.78016
9.9656
11.6627
10.8787
11.2255
11.4809
11.5681
11.7282
11.8328
11.9164
11.9553
1
1
1
1
1
1
1
1
1.00001
1.0001
1.00088
1.00788
1.06899
1.52872
3.52139
9.4537
11.7936
10.7467
11.1289
11.36
11.4505
11.5997
11.705
11.7733
11.8174
1
1
1
1
1
1
1
1
1.00001
1.00009
1.00074
1.00662
1.0575
1.44954
3.19748
8.82053
12.0059
10.6094
11.0502
11.2511
11.3186
11.4538
11.5279
11.6087
11.6119
1
1
1
1
1
1
1
1
1.00001
1.00007
1.00054
1.00516
1.0419
1.35675
2.8166
7.96738
12.2159
10.5111
10.9391
11.1204
11.1762
11.2696
11.3202
11.33
11.3747
1
1
1
1
1
1
1
1
1.00001
1.00004
1.0004
1.00368
1.03068
1.28291
2.51216
7.05065
12.288
10.3826
10.8096
10.9633
11.0078
11.0496
11.0743
11.075
10.9623
1
1
1
1
1
1
1
1
1
1.00003
1.00026
1.00265
1.02202
1.22003
2.23448
6.16603
11.9109
10.4492
10.6855
10.8676
10.7581
10.8139
10.7022
10.6286
10.3987
1
1
1
1
1
1
1
1
1
1.00003
1.00017
1.00223
1.01631
1.17041
2.00665
5.3729
11.1691
10.3956
10.5322
10.6775
10.486
10.5071
10.2717
10.2874
9.36205
1
1
1
1
1
1
1
1
1
1.00003
1.0001
1.00189
1.01134
1.13566
1.78724
4.53575
10.1815
10.4091
10.3535
10.396
10.2583
10.1251
9.67431
9.34674
6.89361
1
1
1
1
1
1
1
1
1
1.00001
1.00012
1.00111
1.00921
1.08563
1.58683
3.76205
9.0289
10.5229
10.1643
10.0107
9.90538
9.70347
9.10983
8.58585
6.66378
1
1
1
1
1
1
1
1
1
1
1.0001
1.00031
1.00647
1.03956
1.40744
3.06717
7.74108
10.5797
9.86828
9.69712
9.5682
9.33352
8.75651
8.10635
6.73389
1
1
1
1
1
1
1
1
1
1.00001
1.00005
1.00041
1.00366
1.02863
1.26532
2.43393
6.44631
10.5673
9.58972
9.5205
9.35398
9.04674
8.49272
7.85441
6.72629
1
1
1
1
1
1
1
1
1
1
1.00002
1.00022
1.00175
1.01675
1.17812
2.05157
5.31144
9.90895
9.51656
9.31148
9.12962
8.78659
8.27957
7.6417
6.70271
1
1
1
1
1
1
1
1
1
1
1.00002
1.00006
1.00145
1.01014
1.1114
1.70933
4.23212
8.68817
9.484
9.14016
8.86993
8.5168
8.0627
7.48579
6.68587
1
1
1
1
1
1
1
1
1
1
1.00001
1.00009
1.0008
1.0068
1.06089
1.45422
3.24005
7.20857
9.39483
8.93011
8.61855
8.30602
7.90624
7.39553
6.68033
1
1
1
1
1
1
1
1
1
1
1
1.00005
1.00028
1.00335
1.02508
1.24602
2.34771
5.78267
9.16188
8.75573
8.47795
8.18699
7.79945
7.32407
6.67917
1
1
1
1
1
1
1
1
1
1
1
1.00003
1.00016
1.00204
1.01447
1.14774
1.89784
4.53083
8.28852
8.75892
8.4329
8.08699
7.68722
7.23023
6.65322
1
1
1
1
1
1
1
1
1
1
1
1.00001
1.00011
1.00097
1.00807
1.07017
1.5161
3.38729
6.89752
8.64169
8.29176
7.93672
7.56514
7.14617
6.63072
1
1
1
1
1
1
1
1
1
1
1
1
1.00005
1.00029
1.00368
1.02564
1.2582
2.3579
5.44072
8.28364
8.15191
7.85135
7.49674
7.09289
6.62094
1
1
1
1
1
1
1
1
1
1
1
1
1.00003
1.00022
1.00187
1.01529
1.12905
1.83817
4.09804
7.33247
8.15503
7.84995
7.46888
7.06514
6.61975
1
1
1
1
1
1
1
1
1
1
1
1
1
1.00009
1.0005
1.00646
1.0444
1.42922
2.95384
5.93842
7.95073
7.71638
7.39762
7.02024
6.60629
1
1
1
1
1
1
1
1
1
1
1
1
1
1.00004
1.00033
1.0028
1.02173
1.18104
2.05513
4.46274
7.22311
7.65482
7.35895
7.00835
6.61421
1
1
1
1
1
1
1
1
1
1
1
1
1
1
1.00015
1.00056
1.00944
1.05711
1.56946
3.24227
5.98423
7.53444
7.30238
6.99814
6.64091
1
1
1
1
1
1
1
1
1
1
1
1
1
1.00001
1.00005
1.0004
1.00344
1.02519
1.21236
2.16567
4.56539
6.97211
7.29833
6.99921
6.67336
1
1
1
1
1
1
1
1
1
1
1
1
1
1
1
1.00019
1.00054
1.01114
1.06553
1.64215
3.31277
5.84645
7.21326
7.00007
6.71297
1
1
1
1
1
1
1
1
1
1
1
1
1
1
1.00001
1.00006
1.00043
1.00366
1.02547
1.2208
2.16732
4.45488
6.65904
7.00791
6.73582
1
1
1
1
1
1
1
1
1
1
1
1
1
1
1
1.00003
1.0002
1.00003
1.00958
1.05929
1.5989
3.17128
5.59694
6.94744
6.75955
1
1
1
1
1
1
1
1
1
1
1
1
1
1
1
1.00001
1.00006
1.00046
1.00376
1.02739
1.22424
2.3258
4.32634
6.32144
6.80587
1
1
1
1
1
1
1
1
1
1
1
1
1
1
1
1
1.00002
1.00011
1.00085
1.00754
1.06329
1.44549
2.8398
4.92889
6.3682
1
1
1
1
1
1
1
1
1
1
1
1
1
1
1
1
1
1.00007
1.00032
1.00469
1.02728
1.00116
1.80798
3.69271
5.67254
1
1
1
1
1
1
1
1
1
1
1
1
1
1
1
1
1
1.00001
1.00012
1.00063
1.00692
1.03915
1.35771
2.54641
4.53617
1
1
1
1
1
1
1
1
1
1
1
1
1
1
1
1
1
1.00001
1.00002
1.0003
1.00135
1.01338
1.05513
1.69806
3.23212
1
1
1
1
1
1
1
1
1
1
1
1
1
1
1
1
1
1
1.00001
1.00009
1.00065
1.00507
1.03368
1.28101
2.3991
1
1
1
1
1
1
1
1
1
1
1
1
1
1
1
1
1
1
1
1.00001
1.00018
1.00058
1.00735
1.05538
1.45756
1
1
1
1
1
1
1
1
1
1
1
1
1
1
1
1
1
1
1
1.00001
1.00006
1.00038
1.00318
1.02051
0.991143
1
1
1
1
1
1
1
1
1
1
1
1
1
1
1
1
1
1
1
1
0.999999
1.00008
1.00056
1.00549
1.03282
1
1
1
1
1
1
1
1
1
1
1
1
1
1
1
1
1
1
1
1
1
1.00001
1.00018
1.0014
1.007
1
1
1
1
1
1
1
1
1
1
1
1
1
1
1
1
1
1
1
1
1
1.00001
1.00004
1.00054
1.00274
1
1
1
1
1
1
1
1
1
1
1
1
1
1
1
1
1
1
1
1
1
1
1.00001
1.00008
1.00051
1
1
1
1
1
1
1
1
1
1
1
1
1
1
1
1
1
1
1
1
1
1
1
1.00004
1.00023
1
1
1
1
1
1
1
1
1
1
1
1
1
1
1
1
1
1
1
1
1
1
1
1.00002
1.00014
1
1
1
1
1
1
1
1
1
1
1
1
1
1
1
1
1
1
1
1
1
1
1
1
1.00004
1
1
1
1
1
1
1
1
1
1
1
1
1
1
1
1
1
1
1
1
1
1
1
1
1.00004
1
1
1
1
1
1
1
1
1
1
1
1
1
1
1
1
1
1
1
1
1
1
1
1
1.00003
1
1
1
1
1
1
1
1
1
1
1
1
1
1
1
1
1
1
1
1
1
1
1
1
1.00003
1
1
1
1
1
1
1
1
1
1
1
1
1
1
1
1
1
1
1
1
1
1
1
1
1.00003
1
1
1
1
1
1
1
1
1
1
1
1
1
1
1
1
1
1
1
1
1
1
1
1
1.00003
1
1
1
1
1
1
1
1
1
1
1
1
1
1
1
1
1
1
1
1
1
1
1
1
1.00003
2.89095
3.54237
4.08036
3.58238
3.89875
3.69785
3.31419
2.96885
2.81739
2.79847
2.81677
2.7735
2.66423
2.48749
2.38087
2.34024
2.33087
2.33098
2.33088
2.32118
2.30444
2.27448
2.24945
2.23493
2.23003
2.22763
2.23422
2.24877
2.28511
2.33296
2.40173
2.49837
2.6225
2.75316
2.87697
3.01149
3.16097
3.3129
3.45602
3.64844
3.83737
3.99721
4.17904
4.36104
4.47165
4.56367
4.67482
4.7691
4.8335
4.90258
4.94293
4.95898
4.9667
4.96372
4.95186
4.93338
4.906
4.87304
4.83588
4.79334
4.74645
4.69742
4.6469
4.5963
4.54459
4.49328
4.44233
4.3914
4.3409
4.29019
4.23989
4.19038
4.14177
4.09432
4.04791
4.00284
3.95872
3.9162
3.87541
3.83614
3.79912
3.76427
3.73109
3.69985
3.67004
3.64167
3.6149
3.58914
3.56495
3.54226
3.52062
3.50016
3.48055
3.46216
3.44471
3.42839
3.41239
3.39699
3.38299
3.36229
4.35767
4.23441
3.68602
3.72889
4.17006
3.91413
3.39514
2.8184
2.68261
2.72411
2.75448
2.72443
2.59693
2.46862
2.38764
2.34586
2.34022
2.33716
2.33754
2.32825
2.31949
2.29318
2.25432
2.2297
2.22746
2.22397
2.23678
2.25426
2.28998
2.3436
2.40993
2.49026
2.60096
2.7185
2.83517
2.9752
3.13301
3.31858
3.47458
3.65422
3.85409
4.00394
4.16788
4.33143
4.44555
4.5451
4.65176
4.7537
4.82066
4.89005
4.9323
4.95053
4.95824
4.95737
4.9452
4.92692
4.89976
4.86579
4.82914
4.78799
4.7417
4.69301
4.64275
4.59214
4.54073
4.48974
4.4392
4.38867
4.33806
4.28741
4.23699
4.18729
4.13872
4.09156
4.04553
4.00081
3.95699
3.91462
3.87389
3.83474
3.7978
3.76273
3.72998
3.69914
3.66934
3.64126
3.61448
3.58853
3.56457
3.54183
3.52035
3.50008
3.47947
3.46098
3.44395
3.42817
3.41224
3.39656
3.3822
3.36082
5.19744
4.61539
4.16177
3.95613
3.96482
3.59493
3.03561
2.7534
2.77206
2.8094
2.83217
2.80148
2.73538
2.53792
2.35253
2.30114
2.30739
2.3221
2.3268
2.30868
2.29052
2.26431
2.24831
2.2331
2.23531
2.23112
2.24374
2.25334
2.28523
2.32509
2.38363
2.47276
2.59764
2.7393
2.87031
2.99904
3.13868
3.28327
3.41475
3.60726
3.80845
3.96502
4.13252
4.31571
4.43255
4.52773
4.61928
4.71923
4.78786
4.85203
4.89674
4.9188
4.92735
4.92726
4.91589
4.90072
4.87859
4.84869
4.81484
4.77464
4.72863
4.68026
4.63091
4.58178
4.53222
4.48242
4.43302
4.38301
4.33249
4.28149
4.23094
4.18136
4.133
4.08602
4.04026
3.99596
3.95262
3.91073
3.87019
3.83142
3.7947
3.76017
3.72761
3.69647
3.66722
3.6389
3.61143
3.58585
3.56137
3.53815
3.51734
3.49589
3.47661
3.45814
3.43872
3.42215
3.40732
3.39138
3.3764
3.35763
5.45528
4.69723
4.24422
3.98644
3.92159
3.6812
3.24019
2.93694
2.80018
2.75831
2.76191
2.72723
2.56903
2.3892
2.34642
2.33056
2.33852
2.34241
2.34562
2.33466
2.32692
2.30808
2.26791
2.21273
2.22069
2.21275
2.22751
2.24651
2.27981
2.33402
2.39928
2.45959
2.56876
2.67791
2.78577
2.93485
3.07754
3.25651
3.40414
3.56378
3.75801
3.90734
4.05905
4.21786
4.37403
4.47903
4.54936
4.6536
4.73179
4.80787
4.85387
4.88802
4.89759
4.89553
4.88802
4.87485
4.85615
4.82428
4.78942
4.7527
4.71143
4.66614
4.61792
4.56937
4.52105
4.47249
4.42412
4.37516
4.32489
4.27394
4.22279
4.17271
4.12455
4.07813
4.03355
3.99023
3.94807
3.90685
3.86689
3.82861
3.79197
3.75746
3.72508
3.69432
3.66494
3.6364
3.60935
3.58312
3.55793
3.53447
3.51292
3.49128
3.4729
3.45421
3.43472
3.41734
3.40165
3.3839
3.36904
3.3529
5.62943
4.89293
4.35217
4.06565
3.96402
3.76637
3.32557
2.89236
2.74823
2.75872
2.78532
2.74999
2.65209
2.50313
2.39915
2.33069
2.31952
2.32315
2.33051
2.31107
2.2909
2.25738
2.23323
2.22315
2.23985
2.22279
2.24159
2.24553
2.27402
2.30123
2.35513
2.4388
2.54323
2.66577
2.79439
2.92606
3.04958
3.18088
3.30425
3.45794
3.64471
3.80821
3.96321
4.10553
4.2658
4.39547
4.49223
4.59098
4.66845
4.73885
4.79276
4.8266
4.83719
4.84354
4.84489
4.8286
4.81435
4.79187
4.76123
4.72741
4.68572
4.63963
4.59501
4.55057
4.50505
4.45874
4.41198
4.36339
4.31266
4.26117
4.21052
4.1615
4.11382
4.06805
4.02424
3.98226
3.94139
3.90129
3.86236
3.82462
3.78823
3.75381
3.72141
3.69069
3.66099
3.63228
3.60476
3.57789
3.55254
3.52868
3.50573
3.48424
3.46379
3.44436
3.42726
3.40931
3.39354
3.37581
3.35568
3.34034
5.79124
5.08119
4.56022
4.19586
4.03577
3.82399
3.46372
3.05229
2.85146
2.79625
2.79192
2.75225
2.61773
2.45202
2.36969
2.33537
2.33894
2.3398
2.34271
2.32631
2.31947
2.28896
2.26583
2.22102
2.22498
2.20626
2.22621
2.24674
2.27398
2.31241
2.36185
2.41246
2.48197
2.56199
2.66836
2.7821
2.91221
3.0426
3.18695
3.35413
3.52761
3.691
3.83481
3.97675
4.10968
4.24849
4.36848
4.47595
4.58084
4.66018
4.72078
4.76266
4.77149
4.78664
4.78478
4.78177
4.77173
4.75779
4.72482
4.6905
4.65752
4.61736
4.57458
4.53168
4.4885
4.44381
4.39685
4.34781
4.29812
4.24879
4.19964
4.15144
4.10448
4.05941
4.01682
3.97599
3.93665
3.8978
3.85954
3.82226
3.78609
3.75164
3.71892
3.68761
3.65758
3.62885
3.60034
3.5734
3.54722
3.52221
3.49783
3.47666
3.45514
3.43397
3.417
3.39892
3.38113
3.36547
3.34567
3.33012
5.90027
5.21014
4.7107
4.3634
4.14808
3.88847
3.56608
3.21702
2.97725
2.87247
2.82785
2.77775
2.67713
2.52961
2.42862
2.37038
2.34067
2.32767
2.3298
2.3146
2.29537
2.26861
2.24779
2.22921
2.24873
2.23308
2.27506
2.29611
2.30324
2.3237
2.35368
2.38129
2.40345
2.44667
2.53085
2.62413
2.73924
2.83543
2.96538
3.12352
3.28234
3.44294
3.61701
3.80476
3.97541
4.12499
4.2329
4.33536
4.44537
4.54986
4.6338
4.6975
4.72807
4.71773
4.71583
4.72261
4.71491
4.70103
4.68312
4.65357
4.62556
4.59115
4.55133
4.51042
4.46723
4.42114
4.37411
4.32684
4.27991
4.23242
4.18488
4.13832
4.09284
4.04915
4.00784
3.96813
3.93022
3.89249
3.85537
3.81905
3.78295
3.74823
3.71507
3.68331
3.65319
3.62354
3.5945
3.56707
3.53961
3.51321
3.48904
3.46607
3.44266
3.42176
3.40382
3.38463
3.36687
3.35041
3.33406
3.31673
5.97395
5.3396
4.83791
4.50262
4.24234
4.00911
3.70949
3.40071
3.1248
2.96321
2.8882
2.81976
2.74434
2.61868
2.47983
2.37713
2.33832
2.33438
2.34102
2.32817
2.31016
2.28074
2.27462
2.24622
2.28143
2.23951
2.35611
2.42484
2.42991
2.44009
2.42336
2.38667
2.3781
2.38965
2.42302
2.47396
2.54346
2.60921
2.71381
2.83205
2.95229
3.08931
3.27756
3.49289
3.71794
3.94613
4.10745
4.21511
4.313
4.39251
4.49082
4.59339
4.65269
4.66674
4.66443
4.66101
4.65174
4.64769
4.64205
4.6243
4.59498
4.56286
4.52304
4.48411
4.44496
4.40311
4.3586
4.31105
4.26303
4.21724
4.17329
4.12969
4.08574
4.04237
4.00103
3.96212
3.92584
3.88935
3.85341
3.81761
3.78179
3.74693
3.71303
3.68087
3.64982
3.61915
3.58991
3.56178
3.53257
3.50516
3.47982
3.45418
3.43065
3.40971
3.38807
3.36872
3.3545
3.33656
3.31457
3.29893
6.01843
5.43199
4.95665
4.62349
4.33697
4.11612
3.84715
3.55854
3.28487
3.07755
2.95708
2.88357
2.79202
2.68728
2.55043
2.44066
2.37961
2.35521
2.34966
2.33982
2.32087
2.29863
2.27738
2.28937
2.32329
2.41705
2.54864
2.66766
2.68096
2.66111
2.58463
2.48747
2.41978
2.3981
2.39852
2.41791
2.44311
2.48248
2.53785
2.60313
2.66665
2.76979
2.91629
3.07224
3.27567
3.52794
3.79789
4.06327
4.23507
4.30337
4.36752
4.43343
4.50724
4.58935
4.62013
4.62069
4.60449
4.59415
4.57671
4.56681
4.54612
4.52299
4.49113
4.45538
4.41773
4.37602
4.33083
4.28619
4.24283
4.20114
4.15999
4.11821
4.07554
4.03299
3.99227
3.95467
3.91923
3.88401
3.84944
3.81455
3.7792
3.74414
3.70994
3.67748
3.64572
3.61435
3.58472
3.5545
3.52384
3.49611
3.46762
3.44194
3.41728
3.3943
3.37135
3.35265
3.33404
3.31826
3.2975
3.28334
6.05054
5.51506
5.06485
4.72638
4.43296
4.21916
3.96864
3.69574
3.42454
3.19596
3.04804
2.95188
2.86648
2.76604
2.63807
2.53535
2.44024
2.38675
2.3565
2.34838
2.32616
2.32511
2.30603
2.35972
2.43302
2.74554
2.99106
3.09052
3.08287
2.99336
2.81013
2.64523
2.52939
2.46169
2.42597
2.415
2.41377
2.42123
2.44191
2.46965
2.49866
2.56387
2.63603
2.72239
2.87264
3.04647
3.26468
3.56819
3.91311
4.1992
4.35679
4.36056
4.38526
4.4306
4.49359
4.53729
4.56208
4.553
4.53509
4.51088
4.49681
4.483
4.46802
4.43741
4.39762
4.35093
4.30746
4.26756
4.22768
4.1871
4.14617
4.10598
4.06597
4.02517
3.98548
3.94894
3.91456
3.88093
3.84745
3.81349
3.7788
3.74369
3.7089
3.67521
3.6425
3.61093
3.57994
3.54779
3.51745
3.48699
3.45715
3.4292
3.40338
3.37779
3.35541
3.33709
3.31567
3.30071
3.28124
3.26393
6.08854
5.59133
5.16147
4.8205
4.52588
4.31076
4.07359
3.8159
3.55664
3.32574
3.14852
3.0262
2.93156
2.82993
2.72967
2.62438
2.52487
2.44899
2.38797
2.35039
2.33902
2.34045
2.36611
2.44976
2.70561
3.20486
3.6178
3.64774
3.56564
3.34224
3.09328
2.89758
2.75954
2.66218
2.58511
2.52415
2.47433
2.43961
2.42767
2.42402
2.43103
2.45035
2.47113
2.51845
2.59329
2.66551
2.81218
3.03708
3.29828
3.63835
4.05381
4.32269
4.41709
4.38445
4.37829
4.4085
4.4504
4.46035
4.46817
4.46124
4.45598
4.44247
4.42636
4.40034
4.36609
4.32561
4.28342
4.24503
4.20838
4.17158
4.13356
4.09425
4.05447
4.0151
3.97748
3.94222
3.90867
3.87595
3.84332
3.81029
3.77632
3.74194
3.707
3.67242
3.63862
3.60618
3.57342
3.54074
3.50876
3.47621
3.44509
3.41549
3.38808
3.36015
3.33763
3.31833
3.29694
3.27781
3.25849
3.24246
6.12647
5.65872
5.24446
4.90109
4.61785
4.40126
4.17359
3.9296
3.68013
3.45383
3.26272
3.10967
2.99299
2.89799
2.80631
2.70037
2.59592
2.50481
2.42166
2.37091
2.35951
2.3823
2.45399
2.64249
3.12893
3.82894
4.24493
4.17652
3.97506
3.69077
3.45086
3.24842
3.07291
2.92864
2.8107
2.70973
2.62411
2.55408
2.49402
2.45069
2.42084
2.41012
2.41134
2.41921
2.437
2.46272
2.54264
2.6375
2.77628
3.03051
3.36335
3.76968
4.20206
4.40521
4.39048
4.34511
4.33054
4.35231
4.3913
4.4198
4.42675
4.40994
4.37994
4.35315
4.32795
4.3033
4.26827
4.22685
4.18768
4.1524
4.11887
4.0841
4.04807
4.01032
3.97258
3.93799
3.90561
3.87366
3.84154
3.80868
3.77523
3.74096
3.70579
3.67014
3.63534
3.60097
3.56674
3.53288
3.4991
3.46511
3.43267
3.40221
3.37088
3.34388
3.31981
3.29573
3.27489
3.25781
3.23724
3.218
6.15182
5.71506
5.32074
4.97908
4.70834
4.49097
4.27047
4.03933
3.8017
3.56588
3.37449
3.19738
3.06302
2.96628
2.87282
2.76998
2.66513
2.564
2.45762
2.40594
2.40712
2.45956
2.6236
3.04456
3.8283
4.60717
4.6589
4.51133
4.2545
4.002
3.77329
3.55889
3.35686
3.18305
3.03982
2.91708
2.8129
2.72076
2.6382
2.56212
2.4958
2.44851
2.41523
2.39186
2.38704
2.38846
2.40183
2.42216
2.49279
2.61093
2.782
3.06442
3.45317
3.9483
4.28794
4.3783
4.31562
4.28571
4.29749
4.3287
4.35216
4.35034
4.33709
4.31289
4.28908
4.26657
4.24093
4.20934
4.17445
4.1382
4.10308
4.06971
4.03727
4.00354
3.96733
3.93169
3.89846
3.86675
3.83511
3.80332
3.77065
3.73656
3.70069
3.66371
3.62747
3.59176
3.55705
3.52242
3.487
3.45166
3.41926
3.38564
3.35406
3.32643
3.2977
3.27323
3.25181
3.23375
3.20897
3.1883
6.18973
5.77558
5.39642
5.06273
4.79382
4.57016
4.3589
4.13246
3.91103
3.67952
3.46807
3.29094
3.14282
3.02743
2.92599
2.83233
2.73378
2.61996
2.50504
2.46933
2.50241
2.63166
2.98895
3.71272
4.62797
5.08697
4.92429
4.70687
4.48296
4.27233
4.05636
3.84377
3.64116
3.46022
3.29775
3.15523
3.03042
2.91603
2.8042
2.70984
2.6336
2.56102
2.4923
2.43333
2.39395
2.37325
2.35257
2.34668
2.35236
2.38821
2.46073
2.59635
2.81162
3.14529
3.60179
4.11732
4.36371
4.34918
4.26848
4.23467
4.23776
4.27848
4.28407
4.27208
4.24957
4.22764
4.20752
4.18646
4.16067
4.1291
4.09459
4.06084
4.02844
3.99684
3.96433
3.93061
3.8973
3.86487
3.83261
3.8004
3.7673
3.73271
3.69638
3.65875
3.62063
3.5831
3.54677
3.51031
3.4736
3.43914
3.40417
3.36928
3.33767
3.30563
3.2751
3.25057
3.227
3.20315
3.17981
3.16097
6.24543
5.84906
5.47706
5.14966
4.87904
4.64744
4.44182
4.22237
4.00021
3.78199
3.56265
3.37749
3.22269
3.09208
2.98797
2.88992
2.78987
2.66552
2.59983
2.58946
2.68033
2.98086
3.6476
4.61518
5.16345
5.14312
5.04027
4.88649
4.70745
4.50832
4.3046
4.09727
3.8937
3.70159
3.52487
3.36821
3.22972
3.09682
2.98068
2.88153
2.78674
2.69043
2.61055
2.54534
2.47739
2.41506
2.36065
2.32271
2.30106
2.30888
2.32257
2.35346
2.43991
2.58947
2.86748
3.25949
3.78016
4.21167
4.35897
4.27207
4.18314
4.17244
4.18836
4.21558
4.20849
4.1973
4.18001
4.15227
4.12309
4.09933
4.07599
4.04994
4.01825
3.98324
3.94916
3.91802
3.88763
3.85679
3.82484
3.79212
3.75829
3.72277
3.68571
3.64739
3.60833
3.57019
3.5325
3.49466
3.45794
3.4218
3.38575
3.35216
3.31791
3.28267
3.25263
3.22349
3.19869
3.17447
3.15053
3.13028
6.30218
5.92639
5.56172
5.2349
4.95951
4.72222
4.51608
4.30605
4.08936
3.87452
3.65972
3.46066
3.29819
3.16174
3.04859
2.94115
2.82551
2.74828
2.73726
2.78305
3.01511
3.60949
4.54676
5.20064
5.26942
5.22658
5.13297
5.00849
4.86052
4.69683
4.51358
4.31628
4.12109
3.92934
3.74809
3.58414
3.42738
3.28738
3.16536
3.04926
2.93484
2.83478
2.75208
2.6675
2.57787
2.5009
2.44045
2.3822
2.33379
2.2973
2.27404
2.26192
2.2744
2.32047
2.43597
2.62552
2.94903
3.39654
3.95742
4.26668
4.29652
4.18744
4.12633
4.11433
4.13343
4.15598
4.15091
4.13345
4.1016
4.07621
4.05692
4.03609
4.01068
3.97862
3.94237
3.90839
3.87805
3.84888
3.81803
3.78583
3.7513
3.7141
3.67521
3.63526
3.59539
3.5566
3.51824
3.4794
3.44136
3.40446
3.36769
3.3333
3.29755
3.26076
3.22733
3.19577
3.16981
3.14513
3.11751
3.0973
6.3674
6.00543
5.64522
5.31782
5.03454
4.79307
4.58012
4.37063
4.16298
3.95546
3.74572
3.54388
3.37409
3.23306
3.10834
2.98603
2.89948
2.87241
2.91584
3.11961
3.65186
4.51308
5.24117
5.40461
5.34124
5.26317
5.1846
5.09832
4.98804
4.8484
4.68378
4.50429
4.31961
4.13346
3.95369
3.78078
3.61908
3.47389
3.33787
3.20592
3.08836
2.9895
2.88968
2.78292
2.69458
2.62017
2.55182
2.47547
2.40529
2.34341
2.29419
2.25282
2.22068
2.22387
2.25203
2.30193
2.43637
2.66961
3.03517
3.55389
4.08345
4.29574
4.22856
4.08895
4.04733
4.05469
4.08866
4.08884
4.08165
4.05813
4.03449
4.01043
3.98565
3.96151
3.93552
3.90653
3.87458
3.84264
3.80988
3.77574
3.73978
3.70119
3.66144
3.62091
3.58045
3.54115
3.50148
3.46174
3.42218
3.38445
3.34811
3.31162
3.27506
3.23828
3.20148
3.16869
3.14042
3.11365
3.08569
3.06595
6.42985
6.07951
5.72874
5.39507
5.10168
4.85303
4.63433
4.42563
4.2239
4.02211
3.82098
3.62624
3.45481
3.30578
3.1608
3.05888
3.02523
3.05463
3.23168
3.73512
4.57637
5.35657
5.53671
5.45141
5.36787
5.31167
5.25984
5.18974
5.08959
4.96025
4.81583
4.66184
4.49558
4.32035
4.14267
3.96709
3.80231
3.64749
3.49548
3.35784
3.24898
3.13189
3.02081
2.91905
2.83614
2.74601
2.65577
2.56571
2.48712
2.41783
2.35013
2.29108
2.24012
2.20733
2.18236
2.18008
2.20354
2.28496
2.46155
2.7592
3.18738
3.75366
4.14235
4.23803
4.13801
4.01946
3.98258
3.99914
4.03023
4.03368
4.0294
4.00792
3.9732
3.93895
3.91535
3.89317
3.86617
3.83465
3.7983
3.76026
3.72202
3.68296
3.64344
3.60391
3.56374
3.52425
3.48361
3.44284
3.40214
3.3617
3.32702
3.29039
3.25179
3.21465
3.17454
3.13823
3.10806
3.08039
3.05206
3.03183
6.45433
6.14504
5.81195
5.47676
5.17228
4.90941
4.68215
4.47614
4.27961
4.08895
3.8919
3.70489
3.53789
3.37963
3.23946
3.18138
3.20337
3.36228
3.8247
4.67078
5.52154
5.733
5.60426
5.49261
5.43495
5.38979
5.33193
5.25507
5.16228
5.05498
4.93353
4.79385
4.64114
4.47823
4.30965
4.14114
3.97509
3.81087
3.65477
3.52715
3.39243
3.26898
3.16031
3.06106
2.95519
2.84886
2.7492
2.66618
2.58156
2.5058
2.43118
2.36727
2.3025
2.24483
2.18721
2.15877
2.12493
2.14134
2.19083
2.31568
2.53553
2.86791
3.33324
3.90494
4.17478
4.16899
4.04812
3.97057
3.94256
3.9673
3.9826
3.98351
3.97131
3.9356
3.90061
3.8713
3.84419
3.81601
3.7831
3.74506
3.70582
3.66463
3.62414
3.58575
3.54702
3.50746
3.46713
3.4237
3.38005
3.33796
3.30037
3.26561
3.22722
3.19033
3.14927
3.10908
3.07613
3.04756
3.01798
2.997
6.51935
6.19119
5.8659
5.54054
5.23389
4.9649
4.72868
4.52887
4.34124
4.1565
3.97097
3.78196
3.6113
3.45845
3.3734
3.36544
3.50676
3.93798
4.75888
5.67374
5.98428
5.81817
5.65648
5.57354
5.52174
5.4623
5.39312
5.31698
5.2347
5.1394
5.02877
4.89852
4.75662
4.60471
4.44394
4.27938
4.11267
3.95219
3.81246
3.66997
3.5278
3.41447
3.2947
3.17159
3.0542
2.94987
2.84978
2.75673
2.67097
2.58884
2.51512
2.43864
2.36964
2.30472
2.23904
2.18183
2.13123
2.10323
2.09362
2.12873
2.19275
2.33328
2.59879
2.95279
3.4691
3.98327
4.17876
4.11591
3.97626
3.9155
3.90025
3.91913
3.92578
3.91787
3.89345
3.8597
3.82174
3.78544
3.75326
3.71961
3.68471
3.64615
3.60325
3.56235
3.52365
3.48395
3.44379
3.40119
3.35651
3.31168
3.27154
3.23719
3.19902
3.16133
3.12284
3.07924
3.04166
3.01411
2.9847
2.96085
6.35282
6.12207
5.85764
5.57127
5.28248
5.02812
4.78702
4.58126
4.40887
4.23076
4.05268
3.87087
3.67789
3.57958
3.55658
3.67326
4.07755
4.87572
5.8602
6.26757
6.06734
5.86468
5.75557
5.68727
5.6155
5.53797
5.46072
5.38425
5.30243
5.21187
5.10902
4.99462
4.86377
4.72179
4.56691
4.40896
4.24557
4.09216
3.93831
3.78586
3.65741
3.52723
3.39532
3.27103
3.15805
3.05245
2.95078
2.85258
2.76283
2.67763
2.60159
2.52552
2.45207
2.37895
2.30916
2.24177
2.17612
2.11837
2.07983
2.0611
2.06512
2.1079
2.19193
2.36083
2.67612
3.09968
3.67681
4.04863
4.1019
4.01103
3.90366
3.85475
3.85081
3.86318
3.85016
3.82888
3.7975
3.76047
3.72092
3.68526
3.65237
3.61971
3.58219
3.54214
3.50292
3.46112
3.41656
3.37251
3.32825
3.28309
3.24162
3.20645
3.16984
3.13109
3.09613
3.05308
3.0108
2.9791
2.94833
2.92171
6.39616
6.17364
5.91598
5.65268
5.374
5.12802
4.90003
4.68252
4.50319
4.32638
4.13758
3.93924
3.80947
3.76235
3.86586
4.25166
5.03392
6.07558
6.55521
6.32416
6.09104
5.96713
5.88662
5.80077
5.70708
5.61388
5.52828
5.447
5.36297
5.27501
5.17758
5.07024
4.94978
4.81869
4.67789
4.5287
4.37576
4.21749
4.05677
3.90987
3.76577
3.62984
3.50855
3.38936
3.27071
3.15837
3.05264
2.95454
2.86093
2.77376
2.68985
2.6135
2.53426
2.45623
2.38197
2.31066
2.24349
2.18025
2.12961
2.08897
2.05806
2.03645
2.03529
2.10116
2.23069
2.44481
2.78151
3.25054
3.81183
4.07044
4.04856
3.93137
3.83458
3.78753
3.7834
3.77572
3.76782
3.74873
3.71337
3.66891
3.62664
3.58997
3.55514
3.51484
3.47439
3.43365
3.38788
3.33944
3.29225
3.25001
3.20922
3.17286
3.13935
3.09946
3.06278
3.02439
2.98093
2.9406
2.90545
2.87811
6.12743
6.27711
6.02902
5.77702
5.49901
5.23045
5.00576
4.77802
4.58195
4.4121
4.20577
4.05652
4.00326
4.07654
4.44912
5.23372
6.32382
6.84844
6.6081
6.34907
6.20419
6.11438
6.0181
5.91502
5.80484
5.69883
5.60379
5.51489
5.42696
5.33708
5.24127
5.13767
5.02587
4.90307
4.77237
4.6307
4.48495
4.3329
4.18293
4.03468
3.89103
3.75679
3.62625
3.49894
3.37661
3.26023
3.15104
3.04841
2.95118
2.85815
2.76833
2.68295
2.60126
2.52213
2.44533
2.37086
2.29893
2.23631
2.18382
2.13223
2.08697
2.04285
2.02239
2.02215
2.05123
2.11797
2.26809
2.51712
2.89619
3.43158
3.88312
4.0153
3.93532
3.81528
3.7374
3.6999
3.70178
3.69455
3.68546
3.65359
3.61282
3.56763
3.52464
3.48242
3.44132
3.40158
3.35605
3.30723
3.25708
3.21445
3.17625
3.13985
3.10477
3.06667
3.02736
2.99151
2.9499
2.90415
2.86366
2.83533
5.24782
6.20614
6.08595
5.84938
5.61259
5.35305
5.09904
4.85637
4.63844
4.46026
4.29997
4.23802
4.31557
4.68624
5.4841
6.63902
7.20538
6.94822
6.64755
6.46189
6.35289
6.24878
6.13923
6.02427
5.90027
5.78206
5.67704
5.58034
5.48645
5.39257
5.29617
5.19457
5.08694
4.97102
4.848
4.71625
4.57918
4.436
4.29105
4.14386
4.00106
3.86193
3.72814
3.59963
3.47536
3.35558
3.243
3.1383
3.03999
2.94635
2.85662
2.77012
2.68644
2.60569
2.52683
2.45021
2.37654
2.31079
2.25019
2.1963
2.14772
2.09768
2.05384
2.01814
1.99225
1.99786
2.03977
2.13251
2.31787
2.62422
3.05289
3.6081
3.89923
3.91779
3.8218
3.71234
3.64526
3.62569
3.61796
3.6087
3.58121
3.54103
3.492
3.44167
3.39537
3.35731
3.31694
3.27001
3.22223
3.17619
3.13702
3.10251
3.06692
3.03348
2.99557
2.95657
2.91476
2.86577
2.82155
2.79198
4.11876
5.69148
6.11291
5.93791
5.66252
5.42034
5.17443
4.93804
4.6868
4.5349
4.49192
4.55462
4.93574
5.77298
7.00871
7.62856
7.33458
6.9777
6.73456
6.60368
6.50431
6.39122
6.27162
6.13954
6.00407
5.878
5.76331
5.65724
5.55539
5.45482
5.35468
5.25194
5.14565
5.03403
4.91609
4.79208
4.6607
4.52514
4.3851
4.24431
4.10439
3.96661
3.83273
3.7018
3.57516
3.45352
3.33805
3.22981
3.12729
3.02894
2.93476
2.84451
2.7589
2.67631
2.59765
2.51927
2.44602
2.37362
2.31086
2.25306
2.20016
2.15347
2.10257
2.04844
2.00319
1.98193
1.96357
1.99345
2.0544
2.17747
2.38858
2.73079
3.20363
3.67835
3.85089
3.80454
3.68987
3.60453
3.55861
3.54887
3.53532
3.5058
3.4602
3.4085
3.35673
3.31106
3.2726
3.22981
3.18487
3.143
3.10125
3.06303
3.03241
3.00006
2.96028
2.91634
2.87321
2.82633
2.77853
2.74599
2.67358
4.4335
5.65877
5.82211
5.63615
5.41387
5.1951
4.95261
4.77747
4.7086
4.82479
5.23643
6.11825
7.45024
8.1382
7.80297
7.3709
7.05364
6.88648
6.78313
6.66365
6.52913
6.38945
6.24583
6.10793
5.97336
5.84564
5.72771
5.61702
5.50966
5.40379
5.2976
5.18996
5.07966
4.96555
4.84655
4.72259
4.59404
4.46198
4.32828
4.19324
4.05854
3.92477
3.79337
3.666
3.54382
3.42719
3.31572
3.20893
3.10651
3.00798
2.91449
2.82602
2.74237
2.66221
2.58496
2.50982
2.44048
2.38022
2.32509
2.27076
2.21833
2.16214
2.1115
2.06428
2.01731
1.97683
1.95409
1.95559
1.98387
2.05719
2.19729
2.47061
2.83981
3.33769
3.6494
3.71668
3.66806
3.57645
3.49539
3.45111
3.43562
3.4045
3.36319
3.31713
3.26892
3.22339
3.18021
3.13714
3.10018
3.06465
3.02602
2.99197
2.96005
2.92459
2.88226
2.83616
2.78634
2.73566
2.70377
1.67675
3.22009
4.98521
5.79777
5.71781
5.51826
5.29082
5.06701
4.98286
5.09452
5.57247
6.54375
7.9805
8.72041
8.33621
7.81895
7.41742
7.20865
7.09329
6.96398
6.81553
6.66474
6.51369
6.36889
6.22573
6.08213
5.94291
5.81332
5.69212
5.57638
5.46353
5.352
5.24027
5.12809
5.01406
4.89807
4.7786
4.65616
4.53078
4.40255
4.27322
4.14215
4.0107
3.88001
3.75262
3.62981
3.51214
3.39954
3.29164
3.18771
3.08778
2.99278
2.90324
2.81849
2.73761
2.65991
2.58495
2.51535
2.45225
2.39383
2.33694
2.27669
2.21991
2.16874
2.11417
2.0607
2.00901
1.96381
1.93407
1.91722
1.9308
1.96942
2.06391
2.24664
2.53092
2.92689
3.40711
3.6343
3.63147
3.53919
3.42424
3.36195
3.33245
3.31198
3.27731
3.23303
3.18355
3.13419
3.09224
3.05474
3.0189
2.98486
2.95096
2.91596
2.88167
2.84253
2.79379
2.73916
2.6894
2.66642
1.28751
2.40279
4.01069
5.39833
5.82315
5.64011
5.38059
5.2781
5.40313
5.96596
7.03799
8.57298
9.31933
8.87712
8.28704
7.81707
7.55982
7.42732
7.28259
7.11859
6.95352
6.79114
6.63391
6.47824
6.3257
6.17558
6.02834
5.88844
5.75649
5.63083
5.50981
5.39189
5.2756
5.16027
5.04502
4.92934
4.81273
4.69488
4.57532
4.45375
4.33003
4.20384
4.0757
3.94798
3.82244
3.70023
3.58187
3.46745
3.35708
3.2505
3.14833
3.0517
2.96091
2.87557
2.79321
2.71476
2.63977
2.56992
2.50555
2.44738
2.39139
2.33671
2.28088
2.2227
2.16621
2.11517
2.06789
2.0222
1.97546
1.93402
1.90262
1.8985
1.89183
1.9333
2.04578
2.2929
2.63165
3.10248
3.43045
3.50329
3.46277
3.36819
3.28984
3.23939
3.20937
3.17315
3.13535
3.09141
3.04874
3.00877
2.97254
2.94236
2.91327
2.87898
2.8377
2.79454
2.74425
2.69132
2.6574
2.6517
1.04889
1.46088
2.59858
4.19279
5.39046
5.472
5.44717
5.57915
6.33799
7.66107
9.27033
9.9199
9.4042
8.76911
8.26047
7.97479
7.82002
7.65372
7.46987
7.29182
7.11581
6.94624
6.77919
6.61098
6.44665
6.28906
6.13463
5.98455
5.84168
5.70527
5.57431
5.44744
5.32385
5.20247
5.08289
4.96539
4.84937
4.73449
4.61938
4.50291
4.3842
4.26269
4.13918
4.01601
3.89471
3.77586
3.65987
3.54611
3.43576
3.32883
3.22588
3.12815
3.03678
2.95073
2.86897
2.7902
2.71532
2.64546
2.58047
2.52096
2.46201
2.40431
2.34499
2.28616
2.22849
2.17329
2.12278
2.06924
2.02212
1.96957
1.92662
1.88675
1.85622
1.82384
1.84231
1.92179
2.07325
2.35468
2.74139
3.15083
3.36644
3.37638
3.31492
3.22421
3.15268
3.10442
3.07299
3.04383
3.00412
2.95977
2.92411
2.89212
2.86113
2.83043
2.78908
2.73854
2.68705
2.65116
2.64536
2.66086
1.01786
0.986909
1.62576
3.02902
4.6072
5.29757
5.71036
6.6736
8.57795
10.2444
10.5614
9.95108
9.24587
8.71885
8.42142
8.23757
8.04906
7.8345
7.63304
7.44303
7.25963
7.07568
6.89537
6.71934
6.54594
6.37827
6.21648
6.05849
5.90556
5.7591
5.6187
5.48394
5.35409
5.22793
5.10503
4.98602
4.87078
4.75815
4.64614
4.53338
4.4185
4.30094
4.18243
4.06477
3.94848
3.83378
3.71978
3.60758
3.4974
3.39012
3.28634
3.18794
3.09539
3.00847
2.9265
2.8465
2.77099
2.70025
2.6354
2.5728
2.51232
2.4522
2.39354
2.33444
2.27633
2.21982
2.16649
2.11324
2.06202
2.00845
1.96422
1.91551
1.86836
1.81738
1.78104
1.76385
1.81915
1.91529
2.1137
2.4465
2.88447
3.18686
3.26822
3.23363
3.15003
3.06717
3.00936
2.97592
2.94574