/*--------------------------------*- C++ -*----------------------------------*\
| =========                 |                                                 |
| \\      /  F ield         | OpenFOAM: The Open Source CFD Toolbox           |
|  \\    /   O peration     | Version:  v2106                                 |
|   \\  /    A nd           | Website:  www.openfoam.com                      |
|    \\/     M anipulation  |                                                 |
\*---------------------------------------------------------------------------*/
FoamFile
{
    version     2.0;
    format      ascii;
    arch        "LSB;label=32;scalar=64";
    class       surfaceScalarField;
    location    "5";
    object      phi;
}
// * * * * * * * * * * * * * * * * * * * * * * * * * * * * * * * * * * * * * //

dimensions      [1 0 -1 0 0 0 0];

oriented        oriented;

internalField   nonuniform List<scalar> 
10325
(
0.0084507
-5.15403e-16
0.0084507
2.86392e-16
0.0084507
7.21509e-16
0.0084507
-1.00456e-13
0.0084507
7.51651e-13
0.0084507
-9.23745e-12
0.0084507
-1.5857e-11
0.0084507
1.0077e-11
0.00845063
2.89744e-10
0.00845038
3.27817e-09
0.0084454
2.52498e-08
0.00841561
2.91093e-07
0.00809769
2.53934e-06
0.00712104
2.30385e-05
0.00626899
8.26841e-05
0.00720238
0.000890631
0.00695585
0.000502013
0.00635962
0.000597206
0.00563732
0.000658457
0.00495721
0.000721294
0.00414233
0.000819356
0.00324301
0.000903042
0.0022622
0.000988338
0.00119838
0.00107009
0.00120127
0.0084507
-7.36634e-16
0.0084507
-2.10902e-15
0.0084507
1.55773e-14
0.0084507
-1.45033e-13
0.0084507
7.05494e-13
0.0084507
-2.75581e-11
0.0084507
-2.00671e-11
0.0084507
-8.36819e-11
0.00845063
6.70363e-10
0.00845039
1.14396e-09
0.00844556
4.56234e-08
0.00841667
3.94144e-07
0.00810656
4.81516e-06
0.00713405
4.83856e-05
0.00626609
0.000177635
0.00711346
0.00181909
0.00690718
0.00100778
0.00631253
0.00119364
0.00559365
0.00131452
0.00491133
0.00144511
0.00408576
0.00165036
0.00317442
0.00181868
0.00217546
0.00199632
0.0011104
0.00214267
0.00231593
0.0084507
-1.83626e-15
0.0084507
1.0116e-14
0.0084507
-1.49362e-15
0.0084507
3.61716e-13
0.0084507
-1.59979e-12
0.0084507
7.8315e-12
0.0084507
2.48852e-10
0.0084507
-4.61526e-10
0.00845063
3.56451e-09
0.00845044
-1.08781e-08
0.0084456
-4.32644e-09
0.00841946
5.33182e-07
0.00814235
-2.30638e-05
0.00719503
7.88798e-05
0.00630684
0.000271613
0.00704586
0.00273965
0.00690818
0.00156393
0.00629393
0.00181332
0.00557554
0.00197508
0.00488902
0.00217547
0.00407375
0.00247391
0.00317449
0.00272658
0.00219082
0.0029942
0.00112206
0.00322517
0.0034495
0.0084507
-2.08836e-15
0.0084507
7.61365e-15
0.0084507
-1.31432e-16
0.0084507
1.7339e-13
0.0084507
-1.96246e-12
0.0084507
7.26327e-12
0.0084507
2.00342e-10
0.0084507
-5.22543e-11
0.00845065
3.30734e-09
0.00845025
4.81296e-09
0.0084465
1.91964e-08
0.00841578
1.3076e-06
0.00815626
-2.32467e-05
0.00722364
0.000103787
0.00631856
0.000359929
0.00683508
0.00368187
0.00688322
0.00211029
0.00629731
0.0024039
0.00557599
0.00263878
0.00489641
0.00290517
0.0040955
0.00328451
0.00320979
0.00362069
0.00221402
0.0040057
0.00113848
0.00431586
0.00459999
0.0084507
-3.50631e-16
0.0084507
1.2165e-15
0.0084507
4.8459e-15
0.0084507
-1.52325e-14
0.0084507
3.58376e-13
0.0084507
9.00072e-13
0.0084507
2.92115e-11
0.0084507
6.8645e-11
0.00845066
2.0577e-09
0.00845033
7.35061e-09
0.00844731
1.30244e-07
0.0084214
1.16854e-06
0.00818527
6.42999e-06
0.00727706
0.000115383
0.00634352
0.000446341
0.00662219
0.00458738
0.00683188
0.00275625
0.00624355
0.00299872
0.00556903
0.00325444
0.00491495
0.00360561
0.00415178
0.00405919
0.00328276
0.00450242
0.00229453
0.00501267
0.00119186
0.00543798
0.00580786
0.0084507
-5.06729e-16
0.0084507
6.80228e-16
0.0084507
3.73361e-15
0.0084507
2.32712e-14
0.0084507
3.6826e-13
0.0084507
3.30868e-13
0.0084507
3.76342e-11
0.0084507
-2.70108e-11
0.00845067
2.68768e-09
0.0084504
-1.15335e-08
0.00844792
1.69672e-07
0.00842682
3.93643e-07
0.00824742
1.08162e-05
0.00741238
0.000118365
0.00647154
0.00047435
0.00645746
0.00536632
0.00673991
0.00370658
0.0061156
0.00361947
0.00547051
0.00384802
0.0048685
0.00424378
0.00415342
0.0047833
0.00336044
0.00530617
0.00238293
0.0060124
0.00123347
0.0066088
0.00707043
0.0084507
-3.25017e-16
0.0084507
3.31007e-16
0.0084507
1.83672e-15
0.0084507
-5.30337e-16
0.0084507
3.43429e-13
0.0084507
1.51895e-12
0.0084507
2.66016e-11
0.0084507
3.54207e-11
0.00845068
2.53689e-09
0.00845046
-1.35732e-08
0.00844865
2.11794e-07
0.00843315
-1.49126e-06
0.00830469
1.15175e-05
0.00757018
0.000100427
0.00669802
0.000341608
0.00661215
0.00553605
0.00714267
0.00511327
0.00637481
0.00438741
0.00563267
0.00454965
0.0049803
0.00493597
0.00434767
0.00542231
0.00354619
0.0061264
0.00255225
0.0070313
0.00146376
0.00773792
0.00856141
0.0084507
-2.59206e-16
0.0084507
2.65657e-16
0.0084507
-3.73475e-15
0.0084507
-1.83751e-14
0.0084507
2.44029e-13
0.0084507
3.76853e-13
0.0084507
2.70037e-11
0.0084507
1.07351e-10
0.00845069
2.03616e-09
0.00845052
6.03936e-09
0.00844922
1.79499e-07
0.00843633
-9.20846e-07
0.00834275
9.16387e-06
0.00770116
7.90687e-05
0.00680546
0.000199472
0.00690249
0.00481321
0.00767268
0.00680267
0.00676597
0.0052734
0.00594394
0.00533534
0.00519115
0.00571395
0.00454358
0.00608073
0.00367606
0.00701685
0.00277488
0.0079598
0.0015889
0.00893917
0.0102527
0.0084507
-2.91379e-17
0.0084507
-6.73832e-17
0.0084507
6.16071e-16
0.0084507
4.5002e-14
0.0084507
-4.0311e-13
0.0084507
1.77907e-13
0.0084507
1.05339e-11
0.0084507
1.91034e-11
0.0084507
1.54613e-09
0.00845058
5.57801e-09
0.00844984
9.67795e-08
0.0084392
6.02897e-07
0.00837222
6.56095e-06
0.00782527
5.97739e-05
0.00682429
0.000181634
0.00714731
0.00358865
0.00858007
0.00800058
0.0075309
0.00632321
0.00654853
0.0062669
0.0058433
0.00647748
0.00506402
0.00689083
0.00425176
0.0078423
0.0034075
0.00888031
0.00231672
0.0100845
0.0127094
0.0084507
1.29291e-16
0.0084507
-9.85594e-16
0.0084507
2.59921e-15
0.0084507
4.42581e-14
0.0084507
1.10589e-13
0.0084507
2.38361e-12
0.0084507
-2.46511e-11
0.0084507
5.23179e-11
0.0084507
8.19101e-10
0.00845058
5.33925e-09
0.00845015
6.00138e-08
0.00844217
4.8422e-07
0.0083942
4.89114e-06
0.00793551
4.70576e-05
0.00688308
0.000242646
0.007033
0.00250471
0.00900625
0.00860326
0.00829237
0.00703879
0.00741594
0.00711159
0.00661177
0.00736736
0.00568876
0.00781773
0.00491364
0.00865516
0.00400145
0.00984196
0.00252064
0.0115927
0.0157317
0.0084507
3.75405e-17
0.0084507
8.81944e-16
0.0084507
8.17521e-15
0.0084507
-1.01647e-15
0.0084507
5.17788e-13
0.0084507
1.57376e-12
0.0084507
1.74127e-11
0.0084507
5.79791e-10
0.0084507
-5.61613e-10
0.00845058
1.01412e-08
0.00845044
2.02187e-08
0.00844357
1.00946e-07
0.00841229
4.35377e-06
0.00810911
-5.78535e-05
0.00714464
0.000291477
0.00688606
0.0018251
0.00911031
0.00869311
0.00880939
0.00743661
0.00818646
0.0077518
0.00741625
0.00818381
0.00655256
0.00873531
0.00587239
0.00938
0.00537494
0.0104888
0.00526149
0.0119938
0.0132907
0.00830891
0.0084507
-5.64598e-17
0.0084507
6.16532e-16
0.0084507
1.20409e-15
0.0084507
-1.02711e-14
0.0084507
2.55497e-13
0.0084507
1.14825e-14
0.0084507
1.39546e-11
0.0084507
4.77307e-10
0.0084507
-2.06561e-10
0.00845065
8.80551e-09
0.00845026
2.85425e-08
0.00844662
2.14643e-08
0.00841715
4.07096e-06
0.0081672
-6.48892e-05
0.00728059
0.000272684
0.00679412
0.00134638
0.00870343
0.00828385
0.00907919
0.00778309
0.00884119
0.00806595
0.00816628
0.00886588
0.00762926
0.00933285
0.00711379
0.0099409
0.00707794
0.0105528
0.00745611
0.0114675
0.0119669
0.00967252
0.0084507
4.67562e-17
0.0084507
2.87774e-16
0.0084507
4.06348e-15
0.0084507
4.65496e-14
0.0084507
-9.42846e-14
0.0084507
1.8433e-12
0.0084507
2.55861e-12
0.0084507
9.36148e-11
0.0084507
7.80295e-10
0.00845071
2.14378e-10
0.00845029
2.93293e-08
0.00844956
2.75235e-07
0.00843132
-2.67035e-06
0.00823989
2.01037e-05
0.00744857
0.00018938
0.00682534
0.00095724
0.00788271
0.00781047
0.00883431
0.00837537
0.00884558
0.00817249
0.00864318
0.00899452
0.00835308
0.00957251
0.00822837
0.0100786
0.00836328
0.0105426
0.00878049
0.0109732
0.0110194
0.0104197
0.0084507
4.52654e-17
0.0084507
1.13191e-16
0.0084507
2.47594e-15
0.0084507
3.2354e-14
0.0084507
-6.53943e-14
0.0084507
1.57764e-12
0.0084507
-3.65514e-12
0.0084507
3.65429e-11
0.0084507
5.62179e-10
0.00845069
-3.19225e-10
0.00845053
1.76875e-08
0.00844963
-1.45595e-07
0.00843843
-3.60509e-06
0.00835837
1.19423e-05
0.00778597
0.000117238
0.00704947
0.000579524
0.00781735
0.00615362
0.00907502
0.00972209
0.00880039
0.00839627
0.00891317
0.00888345
0.00894054
0.00959575
0.00905396
0.0100289
0.00928788
0.0104287
0.00968708
0.0106342
0.010584
0.010614
0.0084507
2.42319e-17
0.0084507
-9.37835e-18
0.0084507
6.54479e-16
0.0084507
2.23888e-16
0.0084507
2.07665e-14
0.0084507
7.3799e-13
0.0084507
-4.08657e-12
0.0084507
8.60267e-12
0.0084507
1.50932e-10
0.00845069
7.67555e-10
0.00845062
1.21353e-08
0.00844998
-2.61112e-07
0.00844001
7.71832e-07
0.00838871
7.63195e-06
0.00793599
7.94149e-05
0.0070365
0.000435496
0.00785242
0.00424014
0.00992787
0.010559
0.00937682
0.00903281
0.00922608
0.00902519
0.00930752
0.00952466
0.00951698
0.00991505
0.00983866
0.0102225
0.0102122
0.0103448
0.0100867
0.0110588
0.0084507
-6.94431e-17
0.0084507
1.36257e-16
0.0084507
-4.78946e-17
0.0084507
5.88687e-15
0.0084507
1.82383e-14
0.0084507
1.514e-13
0.0084507
3.27543e-12
0.0084507
1.49057e-11
0.0084507
2.01101e-10
0.00845071
-1.21411e-10
0.00845061
1.03934e-08
0.00845027
2.80817e-08
0.0084449
4.31695e-07
0.00841786
4.16745e-06
0.00811584
4.34053e-05
0.00721559
0.000385257
0.00754326
0.00272699
0.0102772
0.0100937
0.0101227
0.00966155
0.00979696
0.00950137
0.00970704
0.00963761
0.00983154
0.00982184
0.0101474
0.00995346
0.0105682
0.00999894
0.00963076
0.0112806
0.0084507
-7.38613e-17
0.0084507
8.79559e-17
0.0084507
-1.26716e-16
0.0084507
2.86709e-15
0.0084507
6.42669e-15
0.0084507
7.85945e-14
0.0084507
2.06043e-12
0.0084507
5.57807e-12
0.0084507
1.61432e-10
0.0084507
6.5554e-11
0.00845067
7.94854e-09
0.00845038
2.506e-08
0.00844782
3.23998e-07
0.00842671
3.09589e-06
0.00825919
2.38066e-05
0.00752214
0.000277532
0.00739792
0.00165466
0.00957948
0.008716
0.0105184
0.0102565
0.0103146
0.00989234
0.0101358
0.00976379
0.0101285
0.00978578
0.010361
0.00976178
0.0107508
0.009704
0.00935945
0.0112476
0.0084507
-2.84603e-18
0.0084507
-1.14654e-17
0.0084507
-6.19622e-17
0.0084507
1.5226e-15
0.0084507
3.99583e-15
0.0084507
9.09933e-14
0.0084507
5.80924e-15
0.0084507
3.53117e-12
0.0084507
3.78141e-11
0.0084507
2.90514e-10
0.0084507
2.65656e-09
0.00845053
2.35233e-08
0.00844985
2.01181e-07
0.00843916
1.84442e-06
0.00837031
1.62726e-05
0.00786764
0.000147675
0.00727962
0.00103518
0.00863237
0.00635417
0.010753
0.0108716
0.0105823
0.0101332
0.0104875
0.00980868
0.01051
0.0097677
0.0106656
0.0096845
0.0109467
0.00951203
0.00919843
0.0112964
0.0084507
-5.96311e-19
0.0084507
2.07896e-17
0.0084507
1.68485e-16
0.0084507
3.56892e-16
0.0084507
1.0247e-14
0.0084507
5.34069e-14
0.0084507
5.26903e-13
0.0084507
7.65749e-12
0.0084507
-3.47017e-13
0.0084507
2.11907e-10
0.0084507
6.14373e-10
0.0084506
1.2704e-08
0.00845028
7.18876e-08
0.0084439
8.80327e-07
0.00840926
7.12533e-06
0.00806044
7.15479e-05
0.00735918
0.000657855
0.00842568
0.00406349
0.0112867
0.0106754
0.0112495
0.0104916
0.0110972
0.0101751
0.0109627
0.00992362
0.0109814
0.00972152
0.0111267
0.0094411
0.00908755
0.011394
0.0084507
-2.43945e-19
0.0084507
1.31731e-17
0.0084507
4.22026e-17
0.0084507
-1.91633e-17
0.0084507
4.58528e-15
0.0084507
1.23879e-14
0.0084507
3.00542e-13
0.0084507
5.19272e-12
0.0084507
1.0753e-12
0.0084507
1.23618e-10
0.0084507
5.09947e-10
0.00845066
7.00434e-09
0.00845033
4.95075e-08
0.00844752
4.64267e-07
0.00842429
4.22789e-06
0.00824922
3.3992e-05
0.0075813
0.00038692
0.00796946
0.00236895
0.0108748
0.00900402
0.0117919
0.0110565
0.0116359
0.0106382
0.01141
0.010153
0.0113078
0.0098201
0.0113319
0.00945173
0.00903659
0.0114882
0.0084507
6.77626e-19
0.0084507
3.57787e-18
0.0084507
4.79488e-17
0.0084507
7.7122e-16
0.0084507
9.60061e-17
0.0084507
2.46168e-14
0.0084507
5.636e-14
0.0084507
1.29634e-12
0.0084507
9.21928e-12
0.0084507
1.68481e-11
0.0084507
4.87507e-10
0.0084507
2.23145e-09
0.00845051
3.05825e-08
0.00844998
2.14598e-07
0.00843893
2.0085e-06
0.00837814
1.85098e-05
0.00794472
0.000140783
0.00759903
0.00142174
0.00935441
0.00645892
0.0118633
0.011251
0.0118461
0.0106633
0.0117728
0.0103014
0.0116797
0.00993776
0.0116464
0.0095234
0.00907121
0.0116908
0.0084507
5.69206e-19
0.0084507
1.19262e-18
0.0084507
1.94885e-17
0.0084507
5.33102e-16
0.0084507
-1.77619e-16
0.0084507
1.35478e-14
0.0084507
1.54352e-14
0.0084507
5.42485e-13
0.0084507
5.32279e-12
0.0084507
2.54911e-13
0.0084507
2.87587e-10
0.00845069
8.92444e-10
0.00845062
1.57651e-08
0.00845004
9.6808e-08
0.008445
8.71107e-07
0.00840602
8.72185e-06
0.00813537
4.81162e-05
0.0076185
0.000758104
0.00889375
0.00391131
0.0121321
0.0102913
0.0124202
0.0110622
0.0123439
0.0106162
0.0121739
0.0101781
0.0120397
0.00969089
0.00919812
0.0119713
0.0084507
1.89735e-19
0.0084507
3.55076e-18
0.0084507
7.99599e-18
0.0084507
1.33005e-16
0.0084507
9.40762e-16
0.0084507
1.69634e-15
0.0084507
4.19647e-14
0.0084507
1.13666e-13
0.0084507
2.65786e-12
0.0084507
1.71387e-11
0.0084507
5.89345e-11
0.0084507
9.14042e-10
0.0084507
4.70635e-09
0.00845037
6.02737e-08
0.00844947
4.55377e-07
0.00843124
3.64038e-06
0.00831403
3.74808e-05
0.00783797
0.000246545
0.00830167
0.00208531
0.0111403
0.00799947
0.0127448
0.0115414
0.0126164
0.0109795
0.0125085
0.0103721
0.0123689
0.00988293
0.0093552
0.012263
0.0084507
-1.38236e-18
0.0084507
-1.0842e-19
0.0084507
3.52366e-19
0.0084507
5.9604e-17
0.0084507
5.19983e-16
0.0084507
6.29217e-16
0.0084507
1.63905e-14
0.0084507
-1.28801e-14
0.0084507
1.21223e-12
0.0084507
8.72805e-12
0.0084507
2.14666e-11
0.0084507
3.37585e-10
0.00845069
1.06568e-09
0.00845059
2.54824e-08
0.00844981
1.74467e-07
0.0084432
1.0664e-06
0.00839752
1.5257e-05
0.00810869
4.2919e-05
0.00768622
0.00120636
0.00943545
0.00507542
0.0127551
0.0108618
0.0129235
0.011196
0.0128691
0.0106858
0.0127222
0.0100884
0.00953465
0.0125943
0.0084507
-8.13152e-20
0.0084507
4.33681e-19
0.0084507
4.41812e-18
0.0084507
3.25261e-19
0.0084507
1.93639e-16
0.0084507
7.73063e-16
0.0084507
1.08315e-14
0.0084507
1.02377e-13
0.0084507
1.76751e-13
0.0084507
4.68925e-12
0.0084507
1.67308e-11
0.0084507
2.60453e-10
0.0084507
2.01529e-09
0.00845072
7.42432e-09
0.00845017
9.5977e-08
0.00844944
6.84379e-07
0.00842464
4.66452e-06
0.00826337
5.31061e-05
0.00784379
0.00040555
0.00883979
0.00281322
0.0121394
0.00865366
0.0134321
0.0115522
0.0131969
0.0111067
0.0131023
0.0102512
0.0097484
0.0129379
0.0084507
1.6263e-19
0.0084507
6.23416e-19
0.0084507
3.00866e-18
0.0084507
-2.1684e-18
0.0084507
6.86571e-17
0.0084507
3.6028e-16
0.0084507
3.45275e-15
0.0084507
6.12684e-14
0.0084507
2.3615e-14
0.0084507
2.27833e-12
0.0084507
3.85214e-12
0.0084507
1.00086e-10
0.0084507
9.30684e-10
0.00845069
1.68151e-09
0.00845057
3.52028e-08
0.00844974
2.37781e-07
0.00844254
5.45323e-07
0.00839943
1.90252e-05
0.00814859
7.20862e-05
0.0079837
0.0015386
0.00998104
0.0056573
0.0133728
0.0108875
0.0134969
0.0112977
0.013413
0.0106207
0.00996134
0.0132319
0.0084507
0
0.0084507
-7.86047e-19
0.0084507
6.23416e-19
0.0084507
1.40946e-18
0.0084507
1.61004e-17
0.0084507
1.49132e-16
0.0084507
8.77987e-16
0.0084507
1.15785e-14
0.0084507
1.02872e-13
0.0084507
3.63199e-13
0.0084507
5.91012e-12
0.0084507
2.29209e-11
0.0084507
3.66369e-10
0.0084507
2.43854e-09
0.00845073
9.7652e-09
0.00845005
1.01662e-07
0.00844908
8.84115e-07
0.00842302
2.19645e-06
0.00826055
6.44051e-05
0.00793247
0.000533353
0.00926121
0.003116
0.0127636
0.00865698
0.0140875
0.0115542
0.0137997
0.0111194
0.0101816
0.0136686
0.0084507
2.43945e-19
0.0084507
1.89735e-19
0.0084507
8.94467e-19
0.0084507
1.0842e-18
0.0084507
1.27394e-18
0.0084507
4.81928e-17
0.0084507
-1.18558e-16
0.0084507
5.12798e-15
0.0084507
4.12456e-14
0.0084507
1.06129e-13
0.0084507
2.18731e-12
0.0084507
1.74067e-12
0.0084507
1.40506e-10
0.0084507
1.12447e-09
0.00845069
2.88976e-09
0.00845058
1.38238e-08
0.0084498
3.10095e-07
0.00844278
-2.81446e-06
0.00840821
2.19182e-05
0.00821052
0.000101677
0.00819042
0.00165627
0.0103725
0.00567023
0.0139043
0.0106594
0.0141636
0.0112265
0.0106157
0.0140109
0.0084507
-3.79471e-19
0.0084507
-2.98156e-19
0.0084507
-1.49078e-18
0.0084507
-1.32815e-18
0.0084507
-4.33681e-19
0.0084507
5.07949e-17
0.0084507
3.5326e-16
0.0084507
7.15899e-16
0.0084507
1.98114e-14
0.0084507
7.90688e-14
0.0084507
1.09097e-12
0.0084507
8.15716e-12
0.0084507
2.56391e-11
0.0084507
3.82598e-10
0.0084507
1.79353e-09
0.00845056
1.96739e-08
0.00845086
1.49135e-07
0.00844739
6.67215e-07
0.00842326
6.07366e-06
0.00830363
6.07712e-05
0.00797745
0.00066521
0.00927307
0.00299058
0.0129907
0.0080226
0.0146321
0.0112243
0.0110544
0.0143918
0.0084507
-1.0842e-19
0.0084507
-5.42101e-20
0.0084507
-9.21572e-19
0.0084507
-1.19262e-18
0.0084507
-1.35525e-18
0.0084507
5.14996e-18
0.0084507
1.7602e-16
0.0084507
2.43539e-16
0.0084507
7.7338e-15
0.0084507
2.89726e-14
0.0084507
3.71474e-13
0.0084507
4.17005e-12
0.0084507
6.78133e-12
0.0084507
1.53574e-10
0.0084507
3.04911e-10
0.00845069
5.66923e-09
0.00845057
7.17221e-08
0.00844971
8.15537e-08
0.00844242
1.1124e-06
0.00840289
1.65116e-05
0.00821405
0.000223729
0.00901217
0.000325348
0.0111729
0.0054447
0.0146901
0.0102198
0.0111796
0.0151498
0.0084507
1.6263e-19
0.0084507
2.98156e-19
0.0084507
-5.42101e-20
0.0084507
2.1684e-19
0.0084507
9.75782e-19
0.0084507
-1.34712e-17
0.0084507
3.39355e-17
0.0084507
2.08682e-16
0.0084507
1.38772e-15
0.0084507
1.4146e-14
0.0084507
7.38077e-14
0.0084507
8.30078e-13
0.0084507
3.98867e-12
0.0084507
4.72988e-11
0.0084507
1.36094e-11
0.0084507
2.04814e-09
0.00845069
2.26481e-08
0.00845042
1.92707e-08
0.00844784
9.72771e-07
0.00843506
4.35202e-06
0.0083477
0.000107314
0.0082383
-0.000486044
0.00929707
0.00289881
0.0125304
0.00794292
0.0112502
0.0147011
0.0084507
-2.43945e-19
0.0084507
-1.89735e-19
0.0084507
-4.60786e-19
0.0084507
5.42101e-19
0.0084507
-2.71051e-19
0.0084507
1.27394e-18
0.0084507
5.77338e-18
0.0084507
7.60026e-17
0.0084507
3.9736e-16
0.0084507
4.21793e-15
0.0084507
3.76852e-14
0.0084507
3.28445e-13
0.0084507
2.60905e-12
0.0084507
1.8701e-11
0.0084507
6.92603e-11
0.0084507
8.07588e-10
0.00845071
5.17588e-09
0.00845044
4.7564e-08
0.00845034
2.79895e-07
0.00843416
3.24094e-06
0.00853609
2.17622e-05
0.00796524
8.49134e-05
0.00780001
0.000883399
0.0101278
0.00445788
0.00916702
0.0141178
0.0084507
-4.06576e-19
0.0084507
-4.60786e-19
0.0084507
-1.11131e-18
0.0084507
-3.52366e-19
0.0084507
-1.38236e-18
0.0084507
-1.16552e-18
0.0084507
-1.84314e-18
0.0084507
2.46656e-17
0.0084507
1.45608e-16
0.0084507
1.8957e-15
0.0084507
1.78025e-14
0.0084507
7.2003e-14
0.0084507
1.05717e-12
0.0084507
5.98564e-12
0.0084507
2.7143e-11
0.0084507
2.19977e-10
0.0084507
1.84713e-09
0.00845071
1.53087e-08
0.00845045
1.13221e-07
0.00845086
1.12076e-06
0.00843965
8.57591e-06
0.00840053
1.94312e-05
0.0082691
5.8531e-05
0.00912628
0.00207356
0.00648612
0.012068
0.0084507
-2.1684e-19
0.0084507
-5.42101e-20
0.0084507
-1.0842e-19
0.0084507
-2.1684e-19
0.0084507
-9.75782e-19
0.0084507
-1.0842e-18
0.0084507
-5.96311e-19
0.0084507
4.98733e-18
0.0084507
1.04111e-16
0.0084507
4.67508e-16
0.0084507
7.20932e-15
0.0084507
1.85375e-14
0.0084507
1.12347e-13
0.0084507
1.63774e-12
0.0084507
4.86192e-12
0.0084507
7.48057e-11
0.00845071
3.58825e-10
0.00845069
4.05709e-09
0.00845074
2.65599e-08
0.00845052
2.0167e-07
0.00845397
1.90035e-06
0.00842066
7.12189e-06
0.00827582
8.86025e-05
0.00785376
0.000922515
0.00340728
0.00973301
0.0084507
-8.13152e-20
0.0084507
2.43945e-19
0.0084507
7.58942e-19
0.0084507
4.33681e-19
0.0084507
6.50521e-19
0.0084507
1.40946e-18
0.0084507
1.92446e-18
0.0084507
1.32815e-18
0.0084507
4.10371e-17
0.0084507
1.08962e-16
0.0084507
2.65833e-15
0.0084507
1.19993e-14
0.0084507
-1.14038e-13
0.0084507
5.72078e-13
0.0084507
-7.44823e-13
0.0084507
3.6582e-11
0.0084507
1.99829e-11
0.0084507
1.71311e-09
0.00845068
6.21994e-09
0.00845054
6.2591e-08
0.00844976
6.25692e-07
0.00844147
-8.33693e-07
0.00841585
1.51537e-05
0.0083201
0.000231994
0.000603292
0.00936813
0.0084507
4.60786e-19
0.0084507
2.1684e-19
0.0084507
2.98156e-19
0.0084507
8.94467e-19
0.0084507
1.38236e-18
0.0084507
1.78893e-18
0.0084507
2.71051e-18
0.0084507
2.03288e-18
0.0084507
1.14654e-17
0.0084507
2.43945e-19
0.0084507
1.90684e-16
0.0084507
8.98234e-16
0.0084507
3.62571e-15
0.0084507
-2.4506e-13
0.0084507
9.94862e-13
0.0084507
6.6873e-12
0.0084507
4.50475e-11
0.00845071
3.60684e-10
0.0084507
2.9962e-09
0.00845074
2.03111e-08
0.00845056
7.64442e-08
0.00844753
1.24541e-06
0.0084364
-3.44995e-07
0.00839682
9.17963e-05
-0.000356633
0.00830773
0.0084507
1.6263e-19
0.0084507
3.79471e-19
0.0084507
2.71051e-20
0.0084507
1.0842e-19
0.0084507
4.81482e-35
0.0084507
2.71051e-19
0.0084507
4.33681e-19
0.0084507
1.6263e-19
0.0084507
3.84892e-18
0.0084507
-1.49078e-18
0.0084507
2.89753e-17
0.0084507
-1.49159e-16
0.0084507
-3.84491e-15
0.0084507
1.16155e-14
0.0084507
2.81979e-13
0.0084507
1.27478e-12
0.0084507
-3.16208e-12
0.0084507
8.34648e-11
0.0084507
4.90004e-10
0.0084507
4.00841e-09
0.00845063
-5.83383e-08
0.0084507
1.21383e-07
0.00843722
2.59436e-06
0.00852071
1.85055e-05
8.37758e-05
0.00808029
0.0084507
-2.1684e-19
0.0084507
-5.42101e-20
0.0084507
-1.0842e-19
0.0084507
5.42101e-20
0.0084507
3.25261e-19
0.0084507
8.67362e-19
0.0084507
3.25261e-19
0.0084507
-5.42101e-20
0.0084507
2.1684e-18
0.0084507
-7.15573e-18
0.0084507
2.12504e-17
0.0084507
7.83336e-17
0.0084507
1.25101e-15
0.0084507
2.98001e-15
0.0084507
1.17909e-13
0.0084507
4.90931e-13
0.0084507
-1.10705e-12
0.0084507
2.41572e-11
0.0084507
3.02376e-10
0.00845071
1.92641e-09
0.00845065
1.19759e-08
0.00845047
-5.37019e-08
0.00845068
7.10583e-07
0.00844244
8.28881e-06
4.56146e-06
0.00843122
0.0084507
2.98156e-19
0.0084507
6.77626e-19
0.0084507
5.14996e-19
0.0084507
1.38236e-18
0.0084507
8.40257e-19
0.0084507
1.21973e-18
0.0084507
-2.43945e-19
0.0084507
-1.0842e-19
0.0084507
-9.48677e-19
0.0084507
-4.2826e-18
0.0084507
3.00866e-18
0.0084507
1.61004e-17
0.0084507
9.92858e-17
0.0084507
1.89079e-15
0.0084507
2.11491e-14
0.0084507
1.7943e-13
0.0084507
9.26383e-13
0.0084507
-1.4702e-12
0.0084507
6.91344e-11
0.0084507
5.43602e-10
0.0084507
1.16677e-09
0.0084506
7.12921e-09
0.00845057
8.82085e-08
0.00845107
3.17861e-06
-1.66408e-06
0.00843933
0.0084507
8.13152e-20
0.0084507
1.89735e-19
0.0084507
5.42101e-20
0.0084507
1.6263e-19
0.0084507
-8.94467e-19
0.0084507
-9.48677e-19
0.0084507
-1.30104e-18
0.0084507
-1.73472e-18
0.0084507
-1.19262e-18
0.0084507
-9.75782e-19
0.0084507
4.06576e-19
0.0084507
8.0231e-18
0.0084507
1.2425e-16
0.0084507
6.20218e-16
0.0084507
7.83737e-15
0.0084507
5.76812e-14
0.0084507
-8.69983e-15
0.0084507
3.35497e-12
0.0084507
2.2297e-11
0.0084507
1.7929e-10
0.0084507
1.12361e-09
0.00845067
7.61611e-09
0.00845053
4.98425e-08
0.00845113
2.43663e-07
2.65981e-06
0.00843942
0.0084507
-3.79471e-19
0.0084507
-6.50521e-19
0.0084507
-5.42101e-19
0.0084507
-2.1684e-19
0.0084507
-2.71051e-20
0.0084507
-2.1684e-19
0.0084507
2.71051e-19
0.0084507
-5.42101e-19
0.0084507
-3.52366e-19
0.0084507
-1.44445e-34
0.0084507
-4.60786e-19
0.0084507
7.67073e-18
0.0084507
2.95445e-17
0.0084507
1.60272e-16
0.0084507
2.24731e-15
0.0084507
1.45976e-14
0.0084507
7.02902e-14
0.0084507
1.16778e-12
0.0084507
4.39197e-12
0.0084507
5.77576e-11
0.00845071
3.27415e-10
0.0084507
3.2667e-09
0.00845072
9.06229e-09
0.00845057
2.0586e-07
5.83107e-07
0.00845107
0.0084507
4.06576e-19
0.0084507
4.60786e-19
0.0084507
5.96311e-19
0.0084507
7.58942e-19
0.0084507
8.67362e-19
0.0084507
5.69206e-19
0.0084507
1.11131e-18
0.0084507
6.77626e-19
0.0084507
6.50521e-19
0.0084507
1.6263e-19
0.0084507
-1.00289e-18
0.0084507
1.68051e-18
0.0084507
8.45678e-18
0.0084507
6.75458e-17
0.0084507
2.88371e-16
0.0084507
5.4544e-15
0.0084507
4.01772e-14
0.0084507
4.05653e-13
0.0084507
8.94898e-13
0.0084507
1.52419e-11
0.0084507
6.70645e-11
0.0084507
7.22008e-10
0.0084507
7.38473e-10
0.00845071
8.17454e-08
-1.54431e-07
0.00845092
0.0084507
1.0842e-19
0.0084507
-1.0842e-19
0.0084507
-5.14996e-19
0.0084507
-1.32815e-18
0.0084507
-9.75782e-19
0.0084507
-1.0842e-18
0.0084507
-1.89735e-19
0.0084507
5.42101e-20
0.0084507
6.23416e-19
0.0084507
1.0842e-18
0.0084507
9.48677e-19
0.0084507
2.24972e-18
0.0084507
2.38524e-18
0.0084507
1.84585e-17
0.0084507
2.81947e-16
0.0084507
2.00951e-15
0.0084507
1.47785e-14
0.0084507
1.79518e-13
0.0084507
1.56672e-14
0.0084507
7.12059e-12
0.0084507
3.01068e-11
0.0084507
2.69328e-10
0.0084507
2.33427e-10
0.00845066
1.69188e-08
7.84226e-08
0.00845012
0.0084507
-4.06576e-19
0.0084507
-9.75782e-19
0.0084507
-8.40257e-19
0.0084507
-1.32815e-18
0.0084507
-1.43657e-18
0.0084507
-1.49078e-18
0.0084507
-1.32815e-18
0.0084507
-2.03288e-18
0.0084507
-2.57498e-18
0.0084507
-2.1413e-18
0.0084507
-2.33103e-18
0.0084507
-1.6263e-18
0.0084507
-2.11419e-18
0.0084507
5.77338e-18
0.0084507
1.00316e-16
0.0084507
5.43456e-16
0.0084507
4.34882e-15
0.0084507
6.96581e-14
0.0084507
-1.08004e-13
0.0084507
1.6537e-12
0.0084507
8.85454e-12
0.0084507
7.52794e-11
0.0084507
6.53537e-10
0.0084507
5.00047e-09
3.85917e-08
0.00845061
0.0084507
-1.35525e-19
0.0084507
-2.71051e-19
0.0084507
-1.6263e-19
0.0084507
-2.71051e-20
0.0084507
1.0842e-19
0.0084507
-3.79471e-19
0.0084507
-2.43945e-19
0.0084507
-1.11131e-18
0.0084507
-1.49078e-18
0.0084507
-2.43945e-18
0.0084507
-2.87314e-18
0.0084507
-3.30682e-18
0.0084507
-2.79182e-18
0.0084507
-1.16552e-18
0.0084507
8.40257e-19
0.0084507
-5.28549e-17
0.0084507
1.1949e-15
0.0084507
2.71387e-15
0.0084507
7.822e-15
0.0084507
-1.35666e-13
0.0084507
-1.136e-12
0.0084507
3.15309e-11
0.0084507
6.41515e-11
0.0084507
1.2517e-09
4.93323e-09
0.00845061
0.0084507
2.43945e-19
0.0084507
1.89735e-19
0.0084507
1.6263e-19
0.0084507
1.35525e-19
0.0084507
1.89735e-19
0.0084507
-5.96311e-19
0.0084507
-9.48677e-19
0.0084507
-1.24683e-18
0.0084507
-1.84314e-18
0.0084507
-2.38524e-18
0.0084507
-2.81893e-18
0.0084507
-2.6563e-18
0.0084507
-2.92735e-18
0.0084507
-3.11708e-18
0.0084507
-3.41524e-18
0.0084507
5.09575e-18
0.0084507
1.65368e-16
0.0084507
2.81402e-15
0.0084507
1.05168e-15
0.0084507
1.0261e-13
0.0084507
-5.03679e-14
0.0084507
1.68523e-11
0.0084507
1.01605e-11
0.0084507
5.3192e-10
1.98271e-09
0.00845057
0.0084507
1.89735e-19
0.0084507
5.96311e-19
0.0084507
5.42101e-19
0.0084507
5.42101e-19
0.0084507
7.31836e-19
0.0084507
2.71051e-19
0.0084507
-3.79471e-19
0.0084507
-5.69206e-19
0.0084507
-5.42101e-19
0.0084507
-8.94467e-19
0.0084507
-1.19262e-18
0.0084507
-1.19262e-18
0.0084507
-1.87025e-18
0.0084507
-2.19551e-18
0.0084507
8.13152e-19
0.0084507
1.96241e-17
0.0084507
1.59378e-17
0.0084507
1.428e-15
0.0084507
4.33459e-15
0.0084507
9.5128e-14
0.0084507
5.81775e-13
0.0084507
3.81633e-12
0.0084507
2.66439e-12
0.0084507
9.30818e-11
3.39708e-10
0.00845058
0.0084507
7.52316e-36
0.0084507
2.43945e-19
0.0084507
1.89735e-19
0.0084507
5.42101e-20
0.0084507
1.0842e-19
0.0084507
2.71051e-20
0.0084507
5.42101e-19
0.0084507
8.40257e-19
0.0084507
8.13152e-19
0.0084507
2.98156e-19
0.0084507
2.98156e-19
0.0084507
-3.25261e-19
0.0084507
-4.60786e-19
0.0084507
-6.50521e-19
0.0084507
4.87891e-19
0.0084507
1.06523e-17
0.0084507
-1.53957e-17
0.0084507
8.33291e-16
0.0084507
2.07744e-15
0.0084507
5.14634e-14
0.0084507
2.96286e-13
0.0084507
1.44089e-12
0.0084507
3.21512e-12
0.0084507
4.7934e-11
3.0735e-10
0.00845057
0.0084507
-3.52366e-19
0.0084507
-7.58942e-19
0.0084507
-1.68051e-18
0.0084507
-2.03288e-18
0.0084507
-2.41235e-18
0.0084507
-2.62919e-18
0.0084507
-2.22261e-18
0.0084507
-2.19551e-18
0.0084507
-2.30393e-18
0.0084507
-1.73472e-18
0.0084507
-2.00577e-18
0.0084507
-1.00289e-18
0.0084507
-1.35525e-18
0.0084507
-1.24683e-18
0.0084507
-2.43945e-19
0.0084507
4.36391e-18
0.0084507
-4.25549e-18
0.0084507
2.71999e-16
0.0084507
7.9491e-16
0.0084507
1.6034e-14
0.0084507
9.26675e-14
0.0084507
3.50493e-13
0.0084507
1.10028e-12
0.0084507
9.44648e-12
7.0523e-11
0.00845058
0.0084507
0.0084507
0.0084507
0.0084507
0.0084507
0.0084507
0.0084507
0.0084507
0.0084507
0.0084507
0.0084507
0.0084507
0.0084507
0.0084507
0.0084507
0.0084507
0.0084507
0.0084507
0.0084507
0.0084507
0.0084507
0.0084507
0.0084507
0.0084507
0.00845058
0.00247551
0.00453192
-0.000739023
0.00322219
-0.00203269
0.00127039
-0.00205918
3.65852e-05
-0.0019062
-9.41615e-05
-0.0023198
0.000484166
-0.00310456
0.000743244
-0.00353236
0.000363241
-0.00374708
0.000208479
-0.00382012
7.96025e-05
-0.00378694
3.64215e-06
-0.00378386
4.80842e-05
-0.00378122
1.97175e-06
-0.00388587
6.22616e-05
-0.00397059
6.78163e-05
-0.00401179
4.28206e-05
-0.00402413
2.06726e-05
-0.004025
6.16632e-06
-0.00401302
2.52702e-06
-0.00400763
2.04246e-06
-0.00398888
-1.43549e-05
-0.00399174
-6.43451e-06
-0.00399641
-5.11286e-06
-0.00399766
-1.55362e-06
-0.00399319
-6.87106e-06
-0.00399286
-6.48452e-06
-0.00399125
-6.35254e-06
-0.00400737
8.10703e-07
-0.00400113
-1.0051e-05
-0.0040039
-8.9864e-06
-0.00400187
-1.95819e-05
-0.00398782
-2.80537e-05
-0.00391893
-5.59518e-05
-0.00383365
-7.7845e-05
-0.00374387
-9.295e-05
-0.0036313
-0.000115594
-0.00348045
-0.000142631
-0.00330151
-0.000174065
-0.00313337
-0.00017455
-0.00287078
-0.000240793
-0.00259105
-0.000268224
-0.00231733
-0.000265202
-0.00200533
-0.000286531
-0.00170387
-0.000290298
-0.00142972
-0.000255122
-0.00109061
-0.000320648
-0.000691335
-0.00038531
-0.00029836
-0.000379402
0.000117803
-0.000402617
0.000521243
-0.000394577
0.000884104
-0.000350772
0.00123687
-0.000340672
0.00157152
-0.00032188
0.00188829
-0.000307342
0.002187
-0.00028796
0.00246733
-0.000270889
0.0027259
-0.000250419
0.00296494
-0.000230222
0.00318669
-0.000212146
0.003388
-0.000192556
0.00356976
-0.000173138
0.00373744
-0.000157914
0.00389175
-0.000143929
0.00403181
-0.000130545
0.0041566
-0.000116899
0.00427028
-0.000106592
0.00437384
-9.7011e-05
0.00446913
-8.92362e-05
0.00455603
-8.18674e-05
0.00463374
-7.39588e-05
0.00470395
-6.65874e-05
0.00476711
-5.98656e-05
0.00482313
-5.26959e-05
0.00487337
-4.64967e-05
0.00491691
-3.99689e-05
0.00495518
-3.47854e-05
0.00498698
-2.8964e-05