/*--------------------------------*- C++ -*----------------------------------*\
| =========                 |                                                 |
| \\      /  F ield         | OpenFOAM: The Open Source CFD Toolbox           |
|  \\    /   O peration     | Version:  v2106                                 |
|   \\  /    A nd           | Website:  www.openfoam.com                      |
|    \\/     M anipulation  |                                                 |
\*---------------------------------------------------------------------------*/
FoamFile
{
    version     2.0;
    format      ascii;
    arch        "LSB;label=32;scalar=64";
    class       volScalarField;
    location    "5";
    object      T;
}
// * * * * * * * * * * * * * * * * * * * * * * * * * * * * * * * * * * * * * //

dimensions      [0 0 0 1 0 0 0];

internalField   nonuniform List<scalar> 
5250
(
1
1
1
1
1
1
1
1
1.00002
1.00017
1.00152
1.0141
1.11082
1.50444
2.77894
2.65705
2.52251
2.51696
2.5596
2.55207
2.55588
2.56343
2.56308
2.56015
2.55399
1
1
1
1
1
1
1
1
1.00002
1.00016
1.00148
1.01373
1.10821
1.49609
2.76476
2.65789
2.51899
2.5109
2.55401
2.54686
2.55097
2.55932
2.55898
2.55612
2.55007
1
1
1
1
1
1
1
1
1.00002
1.00016
1.00141
1.01316
1.10406
1.4765
2.73387
2.66484
2.51329
2.49855
2.54254
2.53616
2.54072
2.54953
2.54911
2.54604
2.53961
1
1
1
1
1
1
1
1
1.00002
1.00016
1.00136
1.0123
1.09392
1.44911
2.69413
2.68215
2.50675
2.48243
2.52836
2.52118
2.52635
2.53666
2.53655
2.5335
2.52722
1
1
1
1
1
1
1
1
1.00001
1.00013
1.00113
1.01
1.0798
1.41106
2.53497
2.70157
2.46434
2.44748
2.50162
2.50048
2.5079
2.52023
2.52105
2.51828
2.51179
1
1
1
1
1
1
1
1
1.00001
1.00011
1.00095
1.00835
1.06755
1.3617
2.27668
2.72577
2.38834
2.39108
2.45497
2.46852
2.48488
2.50242
2.50278
2.49965
2.49087
1
1
1
1
1
1
1
1
1.00001
1.00008
1.00073
1.00624
1.05208
1.30182
1.99325
2.79004
2.28266
2.28974
2.36947
2.41156
2.45084
2.47716
2.48077
2.47498
2.46534
1
1
1
1
1
1
1
1
1.00001
1.00006
1.00052
1.00452
1.04029
1.25134
1.88375
2.93665
2.30408
2.25545
2.29057
2.33603
2.39489
2.44133
2.45263
2.44922
2.42059
1
1
1
1
1
1
1
1
1
1.00004
1.00036
1.00325
1.03055
1.20456
1.7689
3.09419
2.40398
2.28131
2.29603
2.29561
2.32047
2.38634
2.40528
2.41189
2.35665
1
1
1
1
1
1
1
1
1
1.00003
1.00028
1.00254
1.02328
1.16535
1.66456
3.07228
2.50556
2.3508
2.32545
2.27932
2.28795
2.3218
2.34972
2.36037
2.21185
1
1
1
1
1
1
1
1
1
1.00002
1.00022
1.00192
1.01777
1.13186
1.55347
2.93084
2.50666
2.4404
2.38615
2.30968
2.25497
2.26514
2.26557
2.2292
1.97772
1
1
1
1
1
1
1
1
1
1.00002
1.00016
1.00136
1.01215
1.09221
1.44799
2.7361
2.57714
2.40623
2.37269
2.33216
2.26823
2.20601
2.20426
2.17903
1.85296
1
1
1
1
1
1
1
1
1
1.00001
1.00008
1.00074
1.00665
1.05558
1.34468
2.3929
2.65404
2.35648
2.31983
2.32434
2.29611
2.22912
2.14286
2.12192
1.84776
1
1
1
1
1
1
1
1
1
1.00001
1.00006
1.00053
1.00432
1.0377
1.24017
1.87957
2.843
2.28435
2.28458
2.29835
2.28248
2.23134
2.14516
2.07717
1.84832
1
1
1
1
1
1
1
1
1
1
1.00003
1.00027
1.00235
1.02432
1.17326
1.68195
2.92578
2.29426
2.25275
2.26483
2.25884
2.21995
2.14833
2.06629
1.87497
1
1
1
1
1
1
1
1
1
1
1.00002
1.00016
1.00161
1.01498
1.11503
1.52038
2.85412
2.36678
2.2356
2.21374
2.21764
2.19883
2.1496
2.07345
1.92299
1
1
1
1
1
1
1
1
1
1
1.00001
1.00011
1.00099
1.00875
1.0696
1.37341
2.6295
2.52425
2.22328
2.14626
2.15944
2.16796
2.14077
2.08007
1.97105
1
1
1
1
1
1
1
1
1
1
1.00001
1.00005
1.00044
1.00386
1.03435
1.22824
1.91198
2.80952
2.24528
2.15071
2.14643
2.13993
2.11805
2.0722
1.9901
1
1
1
1
1
1
1
1
1
1
1
1.00003
1.00026
1.00228
1.02033
1.14782
1.60875
2.79895
2.28506
2.17997
2.11661
2.10759
2.08907
2.05455
1.98952
1
1
1
1
1
1
1
1
1
1
1
1.00002
1.00014
1.00119
1.01019
1.07963
1.41197
2.65499
2.44081
2.15721
2.05883
2.0571
2.0516
2.03158
1.98459
1
1
1
1
1
1
1
1
1
1
1
1.00001
1.00005
1.00047
1.00406
1.03579
1.23674
1.95871
2.71815
2.18934
2.09766
2.04958
2.03073
2.00787
1.9716
1
1
1
1
1
1
1
1
1
1
1
1
1.00003
1.00027
1.00227
1.01894
1.13508
1.58364
2.69982
2.27379
2.12761
2.03803
2.00596
1.98201
1.95212
1
1
1
1
1
1
1
1
1
1
1
1
1.00001
1.00009
1.00082
1.00708
1.06035
1.35871
2.52765
2.45199
2.12079
2.0347
1.99474
1.96564
1.93504
1
1
1
1
1
1
1
1
1
1
1
1
1.00001
1.00005
1.00041
1.00328
1.02671
1.17813
1.79461
2.69931
2.18103
2.0771
1.98383
1.95077
1.91763
1
1
1
1
1
1
1
1
1
1
1
1
1
1.00002
1.00012
1.00113
1.00964
1.07911
1.44599
2.5654
2.36252
2.06781
1.99034
1.95171
1.91609
1
1
1
1
1
1
1
1
1
1
1
1
1
1.00001
1.00006
1.0005
1.00389
1.03125
1.20489
1.89027
2.65517
2.13138
2.04207
1.94934
1.91735
1
1
1
1
1
1
1
1
1
1
1
1
1
1
1.00002
1.00014
1.00127
1.01123
1.08999
1.48822
2.54449
2.31624
2.03261
1.95615
1.91907
1
1
1
1
1
1
1
1
1
1
1
1
1
1
1.00001
1.00007
1.00054
1.00402
1.03225
1.21245
1.90512
2.59464
2.10678
2.00363
1.91954
1
1
1
1
1
1
1
1
1
1
1
1
1
1
1
1.00005
1.00003
1.00092
1.01003
1.08388
1.46944
2.52974
2.32214
2.02415
1.94129
1
1
1
1
1
1
1
1
1
1
1
1
1
1
1
1.00001
1.00007
1.00055
1.00424
1.03339
1.2324
2.07531
2.5693
2.1219
1.99784
1
1
1
1
1
1
1
1
1
1
1
1
1
1
1
1
1.00002
1.00013
1.00108
1.00932
1.07216
1.35056
2.37991
2.25666
1.946
1
1
1
1
1
1
1
1
1
1
1
1
1
1
1
1
1.00001
1.00006
1.00058
1.00672
1.00462
1.08321
1.79061
2.57479
2.13488
1
1
1
1
1
1
1
1
1
1
1
1
1
1
1
1
1
1.00002
1.00011
1.00092
1.00677
1.05106
1.31531
2.36856
2.35755
1
1
1
1
1
1
1
1
1
1
1
1
1
1
1
1
1
1
1.00004
1.00026
1.00183
1.01111
1.09082
1.6188
2.51653
1
1
1
1
1
1
1
1
1
1
1
1
1
1
1
1
1
1
1.00001
1.0001
1.00076
1.0054
1.04155
1.27003
2.20138
1
1
1
1
1
1
1
1
1
1
1
1
1
1
1
1
1
1
1
1.00002
1.00014
1.00093
1.00853
1.07078
1.36882
1
1
1
1
1
1
1
1
1
1
1
1
1
1
1
1
1
1
1
1.00001
1.00006
1.00046
1.00475
1.00216
1.06871
1
1
1
1
1
1
1
1
1
1
1
1
1
1
1
1
1
1
1
1
1.00001
1.00009
1.00077
1.00552
1.0416
1
1
1
1
1
1
1
1
1
1
1
1
1
1
1
1
1
1
1
1
1
1.00002
1.00021
1.00129
1.00762
1
1
1
1
1
1
1
1
1
1
1
1
1
1
1
1
1
1
1
1
1
1.00001
1.00007
1.00053
1.00412
1
1
1
1
1
1
1
1
1
1
1
1
1
1
1
1
1
1
1
1
1
1
1.00001
1.00008
1.00062
1
1
1
1
1
1
1
1
1
1
1
1
1
1
1
1
1
1
1
1
1
1
1.00001
1.00004
1.00022
1
1
1
1
1
1
1
1
1
1
1
1
1
1
1
1
1
1
1
1
1
1
1
1.00003
1.00022
1
1
1
1
1
1
1
1
1
1
1
1
1
1
1
1
1
1
1
1
1
1
1
1.00001
1.00005
1
1
1
1
1
1
1
1
1
1
1
1
1
1
1
1
1
1
1
1
1
1
1
1.00001
1.00004
1
1
1
1
1
1
1
1
1
1
1
1
1
1
1
1
1
1
1
1
1
1
1
1
1.00003
1
1
1
1
1
1
1
1
1
1
1
1
1
1
1
1
1
1
1
1
1
1
1
1
1.00003
1
1
1
1
1
1
1
1
1
1
1
1
1
1
1
1
1
1
1
1
1
1
1
1
1.00003
1
1
1
1
1
1
1
1
1
1
1
1
1
1
1
1
1
1
1
1
1
1
1
1
1.00003
1
1
1
1
1
1
1
1
1
1
1
1
1
1
1
1
1
1
1
1
1
1
1
1
1.00003
2.21812
2.4953
2.53288
2.52015
2.50834
2.60159
2.61513
2.471
2.39806
2.38208
2.38767
2.40767
2.41642
2.35732
2.30683
2.2841
2.27869
2.28112
2.28318
2.28773
2.28819
2.28226
2.2721
2.26643
2.26566
2.26606
2.26616
2.26887
2.2688
2.28172
2.28962
2.30192
2.32656
2.36584
2.39625
2.42369
2.45716
2.49182
2.52165
2.54384
2.58955
2.6166
2.63882
2.67127
2.6863
2.69575
2.70466
2.71355
2.71898
2.72655
2.71518
2.70201
2.68708
2.67531
2.66284
2.64983
2.63621
2.62287
2.60941
2.59578
2.58305
2.57023
2.55738
2.5453
2.53384
2.52318
2.5126
2.50204
2.49142
2.48155
2.47171
2.46201
2.45273
2.44326
2.43449
2.42558
2.4178
2.40999
2.40274
2.39648
2.39039
2.38475
2.37978
2.37464
2.36983
2.36509
2.36025
2.35593
2.35133
2.34731
2.34329
2.33894
2.33517
2.33167
2.32822
2.32443
2.32027
2.31645
2.30966
2.31049
2.21214
2.46254
2.50196
2.59185
2.5573
2.64301
2.7646
2.59596
2.5289
2.52808
2.57749
2.60068
2.63059
2.57306
2.54722
2.53337
2.54181
2.54859
2.55454
2.56021
2.56158
2.5682
2.55425
2.54193
2.54298
2.54416
2.54202
2.55096
2.5542
2.56583
2.57891
2.5915
2.60193
2.63518
2.65923
2.67825
2.71219
2.74412
2.76502
2.77576
2.789
2.79087
2.85108
2.83408
2.82647
2.82009
2.81326
2.79197
2.77637
2.75624
2.73345
2.71222
2.69006
2.66838
2.64473
2.62079
2.59695
2.57612
2.55528
2.53333
2.51449
2.49796
2.48122
2.46375
2.44626
2.43157
2.41896
2.40697
2.39489
2.38389
2.37326
2.36354
2.35472
2.34603
2.3376
2.329
2.32048
2.31174
2.30307
2.29524
2.28699
2.2805
2.27417
2.26797
2.26337
2.25858
2.25436
2.25153
2.24816
2.2458
2.2439
2.2414
2.24064
2.2404
2.24067
2.24067
2.24073
2.24118
2.24046
2.24551
1.96425
2.14563
2.34671
2.52153
2.51435
2.46963
2.56295
2.69958
2.70262
2.70029
2.651
2.63385
2.70108
2.7589
2.67521
2.64531
2.65154
2.66801
2.68007
2.6901
2.68822
2.68508
2.68453
2.67602
2.68018
2.68256
2.68266
2.68965
2.68627
2.70124
2.71169
2.72452
2.74804
2.76691
2.78533
2.79815
2.83269
2.87022
2.87355
2.88711
2.86644
2.84105
2.80768
2.75889
2.70993
2.67258
2.64147
2.60603
2.56776
2.53099
2.50159
2.47273
2.4484
2.42738
2.40429
2.38299
2.36064
2.34088
2.32245
2.30279
2.28463
2.2705
2.25721
2.24379
2.22968
2.21554
2.20336
2.19177
2.18074
2.17086
2.16182
2.15337
2.14614
2.13965
2.13369
2.12761
2.12177
2.11569
2.11015
2.1047
2.09962
2.09493
2.09003
2.08578
2.08122
2.07754
2.07494
2.07223
2.07147
2.07127
2.07096
2.07177
2.0725
2.07301
2.07445
2.07657
2.07891
2.08149
2.08414
2.09439
1.85516
1.92644
2.06743
2.2822
2.40371
2.37776
2.39312
2.4889
2.58131
2.65011
2.64892
2.62622
2.59293
2.67593
2.68496
2.6813
2.6814
2.68696
2.62711
2.66364
2.68543
2.70515
2.71979
2.69257
2.69096
2.69629
2.69202
2.7058
2.71166
2.71752
2.74101
2.76083
2.83819
2.84055
2.83439
2.82837
2.80824
2.76872
2.70694
2.65808
2.6096
2.56318
2.51089
2.47283
2.42464
2.3749
2.35587
2.33674
2.3163
2.29242
2.27169
2.24643
2.23228
2.21917
2.20443
2.19055
2.17684
2.16252
2.15042
2.13688
2.12111
2.10828
2.09866
2.08971
2.08033
2.07006
2.05909
2.04769
2.03773
2.02859
2.02087
2.01421
2.00768
2.00138
1.99577
1.99095
1.98617
1.9818
1.97785
1.97383
1.97015
1.96654
1.96306
1.95953
1.95594
1.95327
1.95029
1.94794
1.94636
1.94471
1.94361
1.94424
1.94441
1.94462
1.94575
1.94744
1.94944
1.95277
1.95529
1.96376
1.80156
1.82677
1.90088
2.02946
2.20063
2.23098
2.18399
2.26574
2.3838
2.48338
2.55881
2.56189
2.53011
2.54155
2.5742
2.62274
2.64084
2.66178
2.65676
2.64281
2.64872
2.66421
2.69013
2.68836
2.68728
2.6836
2.67512
2.68624
2.71557
2.73295
2.75344
2.7767
2.76332
2.73466
2.68487
2.61153
2.54611
2.48122
2.4117
2.37901
2.34072
2.30602
2.26774
2.23783
2.20967
2.17734
2.16422
2.14608
2.13648
2.12453
2.10972
2.09472
2.08562
2.07426
2.06637
2.05775
2.05039
2.03994
2.02829
2.01685
2.00506
1.99822
1.99177
1.98454
1.97597
1.9662
1.95679
1.94837
1.94035
1.93338
1.92669
1.9197
1.91209
1.90571
1.90126
1.89715
1.89337
1.88992
1.88647
1.88302
1.87957
1.87633
1.87335
1.87026
1.86754
1.86487
1.8621
1.86023
1.85827
1.85633
1.85567
1.85467
1.85456
1.85517
1.85559
1.85631
1.8571
1.85815
1.8607
1.86989
1.80678
1.77163
1.79383
1.86603
1.95684
2.05059
2.02609
2.08841
2.19025
2.28784
2.38308
2.42333
2.39878
2.41865
2.45504
2.50772
2.54061
2.56934
2.59823
2.60289
2.60806
2.61011
2.61961
2.64554
2.65152
2.65306
2.66731
2.68498
2.6977
2.69695
2.68566
2.65625
2.61537
2.55969
2.49611
2.40985
2.33059
2.241
2.18475
2.15308
2.11343
2.08762
2.0688
2.05133
2.04382
2.03469
2.02718
2.0219
2.01496
2.00731
1.99983
1.98954
1.98221
1.97473
1.97086
1.96666
1.96052
1.95184
1.94149
1.93712
1.93182
1.92437
1.91652
1.90834
1.90018
1.89323
1.88688
1.8806
1.87429
1.86758
1.86029
1.85323
1.84758
1.84255
1.83726
1.83262
1.82796
1.82384
1.82025
1.81666
1.81355
1.81052
1.80739
1.80459
1.80182
1.79875
1.79677
1.79446
1.79271
1.7911
1.79034
1.78871
1.78737
1.78771
1.7873
1.78731
1.78795
1.78864
1.78957
1.79727
1.83694
1.78112
1.76359
1.78566
1.81491
1.85935
1.8616
1.89655
1.97225
2.06208
2.14489
2.23347
2.24625
2.27082
2.31109
2.35479
2.3968
2.43717
2.47879
2.49737
2.51421
2.52941
2.54421
2.57481
2.59325
2.60842
2.63512
2.62779
2.62226
2.61583
2.58133
2.49975
2.38303
2.27342
2.20116
2.12043
2.0647
2.00497
1.98992
1.97368
1.95059
1.942
1.9417
1.9392
1.93601
1.92702
1.92244
1.9241
1.92992
1.92932
1.92839
1.92346
1.91318
1.90931
1.90724
1.90465
1.90037
1.89718
1.8933
1.88767
1.88225
1.87474
1.86752
1.86208
1.85643
1.85061
1.84469
1.83805
1.83037
1.82352
1.81822
1.81304
1.80788
1.80252
1.79666
1.7919
1.78706
1.78294
1.77898
1.77482
1.77114
1.76738
1.7642
1.76131
1.7581
1.75541
1.75299
1.74993
1.74761
1.74577
1.74331
1.74094
1.74017
1.73911
1.73822
1.73839
1.73896
1.73878
1.73848
1.74471
1.88435
1.80095
1.77152
1.76045
1.75564
1.76506
1.75456
1.76406
1.80602
1.86955
1.92854
1.99263
2.05692
2.07525
2.10928
2.16286
2.22255
2.26882
2.31664
2.34828
2.37451
2.41104
2.43287
2.4679
2.48852
2.51837
2.5989
2.57419
2.54742
2.49277
2.38545
2.23684
2.10841
2.01889
1.95102
1.89839
1.86332
1.82497
1.82157
1.81249
1.80874
1.81756
1.83785
1.85095
1.86849
1.85718
1.85734
1.86523
1.86591
1.87003
1.88516
1.88327
1.87735
1.87248
1.87043
1.86671
1.86599
1.86569
1.86402
1.85903
1.85251
1.84538
1.83904
1.83512
1.83068
1.82508
1.8185
1.81092
1.80591
1.80092
1.79547
1.78952
1.78287
1.77663
1.77211
1.76828
1.76414
1.75991
1.75552
1.7509
1.74666
1.74234
1.73887
1.73526
1.73135
1.72804
1.72451
1.72038
1.71761
1.71488
1.71177
1.7107
1.70947
1.70704
1.70664
1.70677
1.70587
1.70309
1.70351
1.70878
1.91397
1.83202
1.79551
1.76031
1.7494
1.73423
1.70903
1.68215
1.69341
1.72592
1.76722
1.80641
1.84759
1.87521
1.90212
1.95144
2.01123
2.07371
2.11906
2.16434
2.19534
2.23276
2.27548
2.32535
2.37667
2.45809
2.53951
2.4957
2.43234
2.31947
2.13637
1.97557
1.90701
1.85211
1.79731
1.76136
1.72474
1.70249
1.69509
1.6853
1.68558
1.69878
1.71868
1.74031
1.77309
1.80895
1.85208
1.84362
1.83103
1.83949
1.84164
1.84496
1.85622
1.8543
1.85054
1.84959
1.84588
1.84363
1.84078
1.83853
1.83498
1.83187
1.82697
1.82158
1.81551
1.80911
1.80454
1.80011
1.79482
1.78831
1.7816
1.77566
1.76961
1.76436
1.76036
1.75631
1.75195
1.74753
1.74299
1.7383
1.73371
1.72949
1.72547
1.72114
1.71688
1.713
1.70866
1.70455
1.70145
1.69733
1.69511
1.6927
1.68976
1.68719
1.68606
1.68356
1.68311
1.68229
1.68075
1.68441
1.92669
1.86423
1.82588
1.77677
1.75916
1.73617
1.70466
1.66453
1.64741
1.65746
1.67663
1.6956
1.71877
1.72748
1.7438
1.76855
1.80828
1.85547
1.90863
1.95152
1.99517
2.03709
2.08527
2.1573
2.24392
2.44824
2.41567
2.34288
2.24065
2.0852
1.90868
1.82777
1.78078
1.73623
1.70263
1.67147
1.63916
1.61936
1.61069
1.60112
1.60124
1.61153
1.62326
1.64272
1.67551
1.70875
1.75289
1.81004
1.85576
1.84528
1.81364
1.81573
1.82174
1.83052
1.84125
1.84134
1.83722
1.83242
1.82543
1.82496
1.82488
1.82366
1.82015
1.81324
1.80593
1.80123
1.79706
1.79151
1.7847
1.77824
1.77313
1.76794
1.76251
1.75711
1.7529
1.74851
1.74394
1.73933
1.73479
1.73016
1.72541
1.72072
1.71608
1.71158
1.70738
1.70302
1.69845
1.69462
1.69044
1.68644
1.6833
1.6801
1.6759
1.67456
1.67313
1.67018
1.66922
1.66766
1.6638
1.66747
1.92524
1.87754
1.84601
1.80151
1.77853
1.74936
1.71439
1.67346
1.64088
1.63377
1.63821
1.64389
1.64542
1.64835
1.65377
1.66006
1.67502
1.69608
1.72593
1.76204
1.8006
1.83999
1.89313
1.97484
2.12033
2.34638
2.25742
2.16964
2.05419
1.89978
1.80756
1.75143
1.70562
1.66215
1.62868
1.60026
1.58189
1.57405
1.56534
1.55447
1.55371
1.55788
1.5632
1.5764
1.59427
1.61495
1.65539
1.70262
1.75067
1.83727
1.84969
1.83287
1.81192
1.80811
1.80957
1.81694
1.81928
1.81928
1.81781
1.81601
1.81421
1.80976
1.80634
1.80209
1.79738
1.79114
1.78368
1.77752
1.77304
1.76904
1.76482
1.7603
1.75558
1.75066
1.74557
1.74051
1.73583
1.73118
1.7266
1.7219
1.71699
1.7119
1.70652
1.70115
1.69661
1.69194
1.68776
1.68379
1.67944
1.67595
1.67253
1.66918
1.66557
1.66364
1.66082
1.65774
1.65589
1.65423
1.65183
1.65527
1.91538
1.87639
1.84953
1.81808
1.79844
1.76997
1.73426
1.69307
1.65663
1.62698
1.62346
1.62021
1.61881
1.6164
1.61273
1.60456
1.60623
1.60892
1.62135
1.64627
1.67399
1.71191
1.76931
1.87609
2.08581
2.18778
2.10655
2.02667
1.92532
1.82587
1.77047
1.71889
1.67438
1.63905
1.60715
1.57825
1.56133
1.54505
1.53698
1.53101
1.53327
1.53352
1.53181
1.53516
1.54183
1.5523
1.57534
1.59946
1.63813
1.69893
1.76543
1.86372
1.84716
1.80561
1.79586
1.78985
1.79092
1.79626
1.80418
1.80224
1.80017
1.79565
1.79022
1.78797
1.78485
1.78026
1.77189
1.76543
1.76262
1.75932
1.75531
1.75048
1.74499
1.73833
1.73427
1.73068
1.72698
1.72315
1.71907
1.71458
1.70966
1.70421
1.69816
1.69329
1.68856
1.68404
1.67965
1.67509
1.67047
1.66672
1.66276
1.6583
1.65612
1.65294
1.64887
1.64814
1.64724
1.64509
1.64072
1.64513
1.90166
1.87151
1.84627
1.82458
1.80819
1.78436
1.75469
1.71793
1.67914
1.64618
1.61727
1.61503
1.61336
1.60444
1.59228
1.57901
1.5725
1.56131
1.5682
1.58703
1.60668
1.64813
1.73278
1.88878
2.16455
2.04951
2.00185
1.93139
1.84887
1.80599
1.7621
1.71738
1.67249
1.64206
1.61167
1.5883
1.5688
1.54896
1.53118
1.52076
1.52048
1.52072
1.5191
1.51969
1.5189
1.51832
1.52273
1.5316
1.55666
1.59158
1.63768
1.70372
1.79185
1.84277
1.8109
1.79198
1.76831
1.77096
1.77456
1.78248
1.77947
1.77778
1.77384
1.76768
1.76409
1.76125
1.75793
1.75366
1.74887
1.74344
1.73892
1.73549
1.732
1.72803
1.72332
1.71996
1.71654
1.71286
1.70893
1.70468
1.69999
1.69492
1.68938
1.68473
1.68024
1.67592
1.67135
1.66645
1.66168
1.65762
1.65268
1.64926
1.64606
1.64153
1.63997
1.6384
1.63674
1.63428
1.63054
1.63498
1.88417
1.86232
1.83926
1.82347
1.80869
1.79013
1.7666
1.73694
1.70302
1.67087
1.63412
1.61873
1.61379
1.60422
1.59228
1.57847
1.56348
1.53727
1.54899
1.56664
1.59667
1.6625
1.79024
2.054
2.05066
1.98779
1.92125
1.87118
1.83695
1.80094
1.76298
1.7243
1.69143
1.66243
1.638
1.61849
1.59814
1.57602
1.56399
1.55259
1.53689
1.51944
1.50901
1.50958
1.50896
1.50138
1.49737
1.49973
1.50741
1.52137
1.54224
1.57872
1.63257
1.70687
1.82926
1.81472
1.76624
1.75802
1.74457
1.74781
1.75235
1.75674
1.75547
1.75169
1.74727
1.74584
1.74338
1.73995
1.73605
1.73219
1.72866
1.72512
1.72131
1.71727
1.71306
1.70881
1.70466
1.70023
1.69596
1.6922
1.68836
1.68434
1.68004
1.67546
1.67101
1.66663
1.66195
1.65706
1.65268
1.64772
1.64304
1.63942
1.63466
1.63157
1.62967
1.62687
1.62478
1.62271
1.62059
1.62453
1.87662
1.85252
1.82977
1.81748
1.80469
1.7898
1.76977
1.74443
1.71658
1.68709
1.66078
1.63207
1.61888
1.60949
1.59676
1.58093
1.5582
1.54791
1.55891
1.57502
1.62462
1.73424
1.94426
2.02947
1.94478
1.93032
1.90266
1.87193
1.84118
1.80915
1.77785
1.74492
1.71696
1.68845
1.6667
1.64556
1.62252
1.60654
1.59012
1.57045
1.54691
1.53741
1.52762
1.51224
1.49518
1.48543
1.48624
1.48603
1.48416
1.48025
1.48234
1.49442
1.52381
1.57125
1.6437
1.72708
1.82274
1.79431
1.7663
1.72589
1.73336
1.73602
1.74434
1.74359
1.74239
1.74075
1.73645
1.72962
1.72908
1.72754
1.72457
1.71961
1.7122
1.70638
1.70394
1.70111
1.69783
1.69412
1.69008
1.68592
1.68143
1.67644
1.67108
1.66555
1.66105
1.65652
1.6518
1.64716
1.64222
1.63706
1.63302
1.62844
1.62324
1.62039
1.61596
1.61465
1.61294
1.61078
1.60886
1.61301
1.87767
1.85021
1.82218
1.80853
1.79699
1.78531
1.76795
1.7455
1.72025
1.69084
1.66933
1.64999
1.63076
1.62011
1.60594
1.58704
1.56732
1.57461
1.58302
1.61191
1.7004
1.85739
2.0273
1.94709
1.93085
1.91313
1.89219
1.87067
1.84815
1.82452
1.79793
1.76987
1.74321
1.71725
1.69473
1.67047
1.65033
1.63146
1.61004
1.58616
1.57226
1.55813
1.53964
1.51892
1.50389
1.49655
1.48384
1.47259
1.46039
1.45852
1.45507
1.45602
1.46585
1.48662
1.52414
1.5789
1.65719
1.78388
1.79933
1.75747
1.74516
1.71615
1.71982
1.7233
1.73253
1.73039
1.72767
1.72312
1.71844
1.71673
1.7137
1.7095
1.70416
1.69841
1.69425
1.69217
1.68969
1.68676
1.68321
1.6792
1.67451
1.66929
1.66393
1.65844
1.65362
1.64869
1.64364
1.63874
1.63443
1.62986
1.62571
1.62111
1.61613
1.61109
1.60752
1.60585
1.60314
1.59973
1.59863
1.60283
1.87957
1.84771
1.82151
1.80045
1.78788
1.77652
1.7617
1.74305
1.72075
1.69497
1.67112
1.65387
1.63551
1.62518
1.6113
1.59586
1.59693
1.60412
1.62711
1.69926
1.8363
2.02472
1.96535
1.93375
1.90902
1.89691
1.88917
1.87871
1.86293
1.8423
1.81869
1.79378
1.768
1.743
1.71761
1.69336
1.67229
1.64985
1.62558
1.60824
1.59206
1.57241
1.54893
1.53577
1.52194
1.50477
1.48547
1.46841
1.45308
1.44922
1.44497
1.4416
1.4463
1.4463
1.4559
1.47554
1.52171
1.59084
1.6815
1.8199
1.79053
1.7524
1.71094
1.70387
1.70922
1.71344
1.71434
1.71529
1.71403
1.71035
1.70672
1.70116
1.6979
1.69515
1.69193
1.68787
1.68293
1.67894
1.67508
1.67121
1.66714
1.6627
1.65812
1.65326
1.64832
1.6431
1.63779
1.63231
1.62774
1.62327
1.61862
1.61382
1.60898
1.60295
1.59967
1.59718
1.59451
1.59141
1.58845
1.59282
1.8825
1.84376
1.81943
1.79577
1.78187
1.76935
1.75463
1.73811
1.7186
1.69623
1.67555
1.65692
1.63869
1.62119
1.61515
1.61877
1.62671
1.64524
1.70952
1.839
2.04157
1.98428
1.9517
1.91327
1.91141
1.90727
1.90048
1.88897
1.87248
1.8529
1.83271
1.8113
1.78742
1.76189
1.7354
1.71164
1.6878
1.66183
1.64119
1.62552
1.60521
1.58223
1.56525
1.54943
1.53051
1.5091
1.49185
1.4811
1.47144
1.45869
1.44938
1.43801
1.43443
1.42668
1.42503
1.42601
1.44246
1.47901
1.53872
1.6174
1.71472
1.78013
1.74771
1.72805
1.68544
1.68909
1.69528
1.70374
1.70371
1.70336
1.70166
1.69578
1.68646
1.68616
1.68467
1.68211
1.67788
1.67282
1.66712
1.66287
1.65896
1.65484
1.65065
1.64632
1.64169
1.63671
1.63126
1.62549
1.61922
1.61601
1.6119
1.6069
1.60174
1.59626
1.59065
1.58763
1.58493
1.58202
1.57913
1.58334
1.8873
1.8533
1.81778
1.79018
1.77369
1.76195
1.74916
1.73422
1.71659
1.69521
1.67704
1.66134
1.64251
1.6189
1.62534
1.63936
1.65953
1.71873
1.84062
2.06347
2.00644
1.96745
1.91666
1.91711
1.91438
1.90884
1.89968
1.88741
1.8735
1.85799
1.84038
1.81991
1.79761
1.77372
1.74863
1.72431
1.69931
1.67499
1.65717
1.63513
1.61233
1.59609
1.57831
1.5591
1.53815
1.52134
1.51065
1.49686
1.48304
1.46813
1.45611
1.44152
1.429
1.41355
1.41516
1.40763
1.41254
1.42282
1.44452
1.48619
1.54742
1.626
1.76074
1.75753
1.71586
1.70672
1.67525
1.67793
1.68256
1.69109
1.68969
1.68853
1.68435
1.67596
1.6736
1.67087
1.66775
1.66428
1.65991
1.65506
1.65028
1.64494
1.64121
1.63715
1.63271
1.62776
1.62219
1.61569
1.60911
1.6062
1.60293
1.59885
1.59377
1.58838
1.5813
1.57698
1.57468
1.57219
1.56999
1.57408
1.89079
1.85019
1.81536
1.78656
1.76116
1.75154
1.74274
1.73008
1.71417
1.69477
1.67646
1.66337
1.64159
1.63318
1.64434
1.66162
1.71927
1.83555
2.06044
2.02815
1.98238
1.91704
1.91823
1.91681
1.91166
1.90359
1.89367
1.88291
1.87117
1.85724
1.8408
1.8212
1.80006
1.77726
1.75324
1.72891
1.7038
1.68535
1.66433
1.64025
1.62657
1.60898
1.58892
1.56757
1.55389
1.53803
1.52121
1.50647
1.49049
1.47782
1.46251
1.44843
1.43502
1.42149
1.40985
1.39922
1.39798
1.39759
1.39982
1.41579
1.44213
1.49156
1.56528
1.64919
1.7874
1.75946
1.7239
1.69112
1.6694
1.67333
1.67742
1.68248
1.68098
1.6778
1.67236
1.66634
1.66029
1.65734
1.65369
1.64947
1.64492
1.6393
1.63427
1.63025
1.62563
1.62035
1.61458
1.60783
1.60027
1.59691
1.59376
1.58957
1.58446
1.57928
1.57284
1.56512
1.56444
1.56232
1.55904
1.56391
1.90961
1.85195
1.81902
1.78857
1.76288
1.74101
1.73582
1.72797
1.71443
1.69672
1.67892
1.65937
1.65013
1.65603
1.66976
1.71769
1.8259
2.04822
2.03665
1.99164
1.91892
1.91896
1.91739
1.91146
1.90314
1.89347
1.88365
1.87322
1.8615
1.84844
1.83369
1.81725
1.79816
1.77748
1.75496
1.73158
1.71085
1.68974
1.66605
1.65224
1.63495
1.61588
1.59757
1.58149
1.56469
1.54742
1.52949
1.51354
1.49752
1.48383
1.4691
1.45383
1.43762
1.42431
1.41002
1.39804
1.38509
1.38537
1.38761
1.39182
1.39528
1.4146
1.44915
1.50844
1.59251
1.69731
1.76421
1.71976
1.70294
1.66639
1.66621
1.67309
1.67427
1.67368
1.66981
1.66524
1.6595
1.65317
1.64741
1.64407
1.64034
1.63612
1.63073
1.62559
1.62038
1.61402
1.60729
1.60061
1.59458
1.58966
1.58621
1.58158
1.57598
1.5708
1.56495
1.55474
1.55338
1.55073
1.54722
1.55313
1.94203
1.86261
1.83439
1.80661
1.77913
1.74833
1.74093
1.73434
1.71977
1.70232
1.67961
1.66511
1.67108
1.68532
1.72729
1.82671
2.03629
2.04677
2.00045
1.92156
1.9216
1.91938
1.91289
1.904
1.89361
1.88446
1.87426
1.86264
1.85018
1.83741
1.82378
1.80933
1.79338
1.77621
1.75778
1.73839
1.71857
1.69623
1.67873
1.65979
1.64049
1.62526
1.60786
1.58929
1.57082
1.55366
1.53822
1.52233
1.50823
1.49339
1.48044
1.46651
1.45166
1.43888
1.42566
1.41384
1.40148
1.39554
1.3865
1.38413
1.3807
1.38476
1.39308
1.42307
1.46616
1.52815
1.61063
1.74702
1.74127
1.69929
1.68437
1.65062
1.65294
1.66072
1.66121
1.66043
1.65872
1.65347
1.64556
1.63656
1.63338
1.6295
1.62504
1.61989
1.61522
1.60959
1.60181
1.59333
1.58879
1.58357
1.57932
1.57437
1.56833
1.56195
1.55639
1.549
1.54152
1.53853
1.53615
1.54235
2.01478
1.9271
1.83871
1.81363
1.79024
1.76552
1.73983
1.734
1.72267
1.70036
1.67947
1.68471
1.69819
1.73578
1.83276
2.0257
2.06316
2.01558
1.93843
1.93351
1.92974
1.92175
1.91141
1.89972
1.88713
1.87679
1.86565
1.85341
1.84131
1.82966
1.81767
1.80524
1.79209
1.77758
1.76198
1.74467
1.72677
1.70797
1.68921
1.67013
1.65277
1.63487
1.61679
1.59865
1.58156
1.56494
1.549
1.53364
1.51847
1.50306
1.4885
1.47524
1.46202
1.44875
1.43545
1.42267
1.4119
1.40455
1.39593
1.38775
1.37513
1.37732
1.38085
1.38098
1.3953
1.42334
1.47438
1.5462
1.63803
1.75498
1.72437
1.69368
1.66104
1.63759
1.63915
1.64728
1.64749
1.64563
1.64237
1.63436
1.62701
1.61969
1.6151
1.61136
1.60731
1.6024
1.59553
1.58733
1.58245
1.57765
1.57256
1.56717
1.56134
1.5547
1.54905
1.54241
1.53263
1.52842
1.52687
1.53289
2.24384
1.96277
1.87462
1.82256
1.79447
1.76752
1.73674
1.7308
1.7213
1.70089
1.70054
1.71247
1.7483
1.84132
2.0223
2.07514
2.02547
1.95421
1.93401
1.93215
1.9254
1.91628
1.90503
1.89186
1.87701
1.86767
1.85811
1.84787
1.83693
1.82596
1.81483
1.80331
1.79129
1.7783
1.76438
1.74909
1.7329
1.71553
1.69769
1.67973
1.66171
1.64378
1.62616
1.60843
1.59105
1.57418
1.55877
1.54371
1.52857
1.51396
1.49955
1.48549
1.47145
1.45773
1.44371
1.43031
1.41924
1.40941
1.40072
1.39184
1.38228
1.37431
1.36633
1.36456
1.37005
1.37723
1.39887
1.43639
1.49691
1.57607
1.69927
1.72068
1.67789
1.66175
1.62216
1.62119
1.62857
1.63267
1.63241
1.63113
1.62559
1.61802
1.60709
1.60097
1.59833
1.59415
1.58822
1.5808
1.57318
1.56966
1.56571
1.56087
1.55552
1.54927
1.54148
1.53413
1.52591
1.51863
1.51691
1.52326
2.44681
2.09126
1.95527
1.85263
1.79952
1.7684
1.7402
1.71076
1.71138
1.71549
1.728
1.76207
1.85665
2.0376
2.09839
2.04421
1.97507
1.93785
1.93788
1.93414
1.92641
1.91527
1.90264
1.88628
1.87358
1.86417
1.8548
1.8451
1.83488
1.82435
1.81379
1.80291
1.79166
1.77965
1.76667
1.75261
1.73727
1.72125
1.70444
1.68758
1.67067
1.65378
1.63667
1.61968
1.60291
1.58626
1.57087
1.55565
1.54062
1.52566
1.51103
1.49748
1.48381
1.47081
1.45677
1.44468
1.43124
1.42244
1.41244
1.40447
1.39689
1.38672
1.37504
1.3628
1.3666
1.36508
1.36954
1.38418
1.40827
1.45079
1.51475
1.5998
1.7298
1.70355
1.66125
1.63955
1.61279
1.61682
1.62684
1.62649
1.62366
1.61628
1.60666
1.59677
1.59079
1.58589
1.57984
1.57256
1.56758
1.56224
1.55645
1.55305
1.54835
1.54222
1.53409
1.52634
1.5194
1.50926
1.50787
1.51541
2.26618
2.17748
1.92399
1.87431
1.81078
1.77672
1.74956
1.71896
1.7247
1.74117
1.78203
1.87541
2.05639
2.13475
2.07423
2.00365
1.95013
1.95004
1.94828
1.94111
1.92965
1.91633
1.9021
1.88719
1.87414
1.86319
1.85346
1.84364
1.83344
1.82292
1.81213
1.80115
1.7898
1.77791
1.76527
1.75177
1.73752
1.72272
1.70764
1.69243
1.67689
1.66108
1.64503
1.62891
1.61296
1.59721
1.58171
1.56638
1.55097
1.53571
1.52111
1.50747
1.49427
1.48104
1.46796
1.45436
1.44228
1.43332
1.42404
1.41412
1.40385
1.39199
1.38271
1.37591
1.36764
1.35824
1.35946
1.365
1.37119
1.38891
1.42072
1.4723
1.54884
1.63115
1.70233
1.66983
1.64871
1.6287
1.60483
1.60755
1.61276
1.61011
1.60299
1.59464
1.58621
1.57741
1.5701
1.5634
1.55998
1.55534
1.54947
1.54433
1.53974
1.53461
1.52798
1.51926
1.51049
1.49934
1.49986
1.50751
1.68094
2.46789
2.16363
1.90492
1.85408
1.80633
1.76364
1.75664
1.76646
1.80658
1.90614
2.08761
2.16825
2.10512
2.03222
1.96219
1.96269
1.96287
1.9563
1.94522
1.93187
1.91876
1.90569
1.89154
1.87648
1.86366
1.85275
1.84213
1.83145
1.82062
1.8097
1.79867
1.78755
1.77616
1.76417
1.75157
1.73832
1.72477
1.71096
1.69688
1.68255
1.66754
1.65215
1.63679
1.62159
1.60662
1.59175
1.57698
1.56211
1.5476
1.53314
1.51991
1.50672
1.49403
1.48164
1.4691
1.45856
1.4492
1.44089
1.43176
1.42181
1.41028
1.40251
1.39347
1.38373
1.37503
1.36654
1.36563
1.36715
1.37176
1.38115
1.39916
1.4356
1.4924
1.56768
1.71098
1.71023
1.6671
1.64809
1.60462
1.603
1.60606
1.60444
1.59953
1.59021
1.58025
1.57008
1.56395
1.55649
1.55156
1.54706
1.54228
1.5369
1.53045
1.52274
1.51291
1.50043
1.4898
1.49277
1.50003
1.2774
2.25412
2.36998
2.05914
1.92575
1.82921
1.78803
1.79886
1.84147
1.95035
2.1451
2.1987
2.13634
2.06096
1.98343
1.97905
1.98122
1.97464
1.96336
1.94945
1.93612
1.92321
1.90986
1.896
1.88112
1.86774
1.85627
1.8449
1.83335
1.82198
1.81071
1.79936
1.78787
1.77604
1.7638
1.75108
1.73796
1.7246
1.71109
1.69744
1.68351
1.66911
1.6543
1.63992
1.62571
1.61148
1.59723
1.58302
1.56898
1.55489
1.54173
1.52894
1.51703
1.50465
1.49341
1.48173
1.47218
1.46262
1.45484
1.44642
1.43757
1.42799
1.41749
1.40575
1.39826
1.39195
1.38529
1.37755
1.37162
1.36897
1.3748
1.37441
1.38231
1.41368
1.46898
1.55075
1.64645
1.72792
1.68706
1.65546
1.63262
1.60407
1.60297
1.60209
1.59692
1.58866
1.57988
1.57013
1.56045
1.55474
1.55046
1.54519
1.53869
1.52986
1.51947
1.509
1.49365
1.49193
1.49614
1.49891
1.06839
1.37751
2.19961
2.12874
1.88231
1.81887
1.81419
1.86002
2.00028
2.25112
2.23186
2.16778
2.08519
2.01482
2.00421
2.00624
1.99937
1.98704
1.97255
1.95828
1.94508
1.93092
1.91594
1.90206
1.88824
1.87385
1.86136
1.84966
1.83783
1.82571
1.81323
1.80059
1.78818
1.77605
1.76394
1.75161
1.73901
1.72625
1.71348
1.70055
1.68732
1.67371
1.65984
1.64676
1.63363
1.62043
1.60701
1.59358
1.57997
1.5669
1.55378
1.54217
1.5309
1.52021
1.50956
1.49888
1.49029
1.48169
1.47447
1.46646
1.4583
1.44988
1.44113
1.4319
1.42522
1.42061
1.41481
1.41089
1.40418
1.40216
1.39928
1.40096
1.39941
1.40973
1.43115
1.47384
1.53522
1.62245
1.76148
1.75105
1.70332
1.68066
1.64575
1.61898
1.61339
1.60868
1.60107
1.59155
1.57734
1.56898
1.56165
1.55372
1.54497
1.53471
1.52157
1.50615
1.49855
1.50128
1.50295
1.50555
1.00105
1.06269
1.63411
2.36681
2.06046
1.88887
1.91113
2.05188
2.33392
2.24746
2.19321
2.09939
2.04109
2.02928
2.02766
2.01985
2.00763
1.9928
1.97997
1.96697
1.95354
1.93982
1.92531
1.91026
1.8961
1.88169
1.86686
1.85319
1.84028
1.82754
1.81473
1.80169
1.78855
1.77608
1.76421
1.7526
1.74088
1.72894
1.71692
1.70475
1.69224
1.67926
1.66698
1.65495
1.64275
1.63019
1.61745
1.6045
1.5918
1.57885
1.56763
1.5565
1.54701
1.53811
1.52848
1.52063
1.5126
1.50672
1.50045
1.49421
1.48753
1.48183
1.47546
1.4708
1.46621
1.46322
1.45974
1.45688
1.4528
1.4522
1.44986
1.44522
1.43765
1.43785
1.44251
1.45445