/*--------------------------------*- C++ -*----------------------------------*\
| =========                 |                                                 |
| \\      /  F ield         | OpenFOAM: The Open Source CFD Toolbox           |
|  \\    /   O peration     | Version:  v2106                                 |
|   \\  /    A nd           | Website:  www.openfoam.com                      |
|    \\/     M anipulation  |                                                 |
\*---------------------------------------------------------------------------*/
FoamFile
{
    version     2.0;
    format      ascii;
    arch        "LSB;label=32;scalar=64";
    class       volVectorField;
    location    "5";
    object      U;
}
// * * * * * * * * * * * * * * * * * * * * * * * * * * * * * * * * * * * * * //

dimensions      [0 1 -1 0 0 0 0];

internalField   nonuniform List<vector> 
5250
(
(3 -4.76897e-14 0)
(3 5.46312e-13 0)
(3 -8.6763e-13 0)
(3 2.88934e-11 0)
(3 1.81496e-10 0)
(3 7.25684e-10 0)
(3 3.41791e-09 0)
(3 1.08373e-09 0)
(3.00001 8.21109e-08 0)
(2.99994 3.07863e-07 0)
(3.00057 5.54223e-06 0)
(2.99885 4.07684e-05 0)
(3.03049 0.000463112 0)
(3.01618 0.0030525 0)
(2.4493 0.00773814 0)
(0.678932 0.0313036 0)
(0.534646 0.0165894 0)
(0.543621 0.0200073 0)
(0.48863 0.0227465 0)
(0.413942 0.0220498 0)
(0.358006 0.025316 0)
(0.284204 0.0270689 0)
(0.211913 0.0303146 0)
(0.130919 0.0329919 0)
(0.0490318 0.0413847 0)
(3 -2.89977e-13 0)
(3 -8.338e-13 0)
(3 2.88268e-12 0)
(3 -1.04864e-10 0)
(3 2.10554e-10 0)
(3 -8.15566e-09 0)
(3 -1.58798e-08 0)
(3 1.18273e-08 0)
(3.00001 4.8373e-08 0)
(2.99995 1.85901e-06 0)
(3.00055 7.38227e-06 0)
(2.99891 0.000137138 0)
(3.0296 0.000962839 0)
(3.01832 0.00908661 0)
(2.45937 0.0253874 0)
(0.692178 0.100435 0)
(0.523144 0.0490656 0)
(0.540043 0.0606296 0)
(0.484453 0.0652163 0)
(0.410008 0.0718551 0)
(0.354161 0.0804729 0)
(0.279112 0.0882734 0)
(0.206406 0.0947102 0)
(0.123167 0.101217 0)
(0.0435363 0.108299 0)
(3 4.96058e-16 0)
(3 4.82445e-13 0)
(3 3.58374e-12 0)
(3 4.7975e-11 0)
(3 2.52132e-10 0)
(3 -3.54099e-09 0)
(3 1.38763e-08 0)
(3 -1.03082e-07 0)
(3.00002 5.13168e-07 0)
(2.99993 -2.74187e-06 0)
(3.00064 2.62164e-05 0)
(2.99834 5.1868e-05 0)
(3.03195 0.00216602 0)
(3.02426 0.0162995 0)
(2.48956 0.0449722 0)
(0.743911 0.169706 0)
(0.507796 0.0817403 0)
(0.541072 0.0996494 0)
(0.48281 0.109605 0)
(0.40823 0.115558 0)
(0.352509 0.132072 0)
(0.279255 0.143344 0)
(0.206798 0.156987 0)
(0.125546 0.166543 0)
(0.0431635 0.179225 0)
(3 -1.23657e-12 0)
(3 4.60612e-12 0)
(3 -2.43218e-12 0)
(3 1.35096e-10 0)
(3 -1.2395e-09 0)
(3 4.4773e-09 0)
(3 1.21083e-07 0)
(3 -1.00646e-07 0)
(3 1.39586e-06 0)
(3.00001 -9.52482e-07 0)
(3.00017 -3.36135e-05 0)
(3.00052 0.00035152 0)
(3.01683 -0.0160571 0)
(3.03124 0.0252404 0)
(2.52745 0.0659874 0)
(0.810993 0.249728 0)
(0.479779 0.119981 0)
(0.543482 0.144195 0)
(0.484571 0.152638 0)
(0.407624 0.166617 0)
(0.354313 0.186328 0)
(0.28218 0.20401 0)
(0.210524 0.220677 0)
(0.126596 0.237031 0)
(0.0451212 0.249642 0)
(3 3.37411e-14 0)
(3 2.92258e-13 0)
(3 1.75643e-12 0)
(3 -1.88392e-11 0)
(3 9.05128e-11 0)
(3 8.16152e-10 0)
(3 3.42007e-09 0)
(3 3.60079e-08 0)
(3 6.03824e-07 0)
(3.00001 2.24586e-06 0)
(3.00009 4.15624e-05 0)
(3.0009 0.000367569 0)
(3.00925 0.00171092 0)
(3.04747 0.029794 0)
(2.58539 0.0847874 0)
(0.906467 0.338616 0)
(0.440831 0.147524 0)
(0.54052 0.179073 0)
(0.479058 0.197754 0)
(0.409709 0.209294 0)
(0.357178 0.236775 0)
(0.29005 0.25803 0)
(0.216395 0.286304 0)
(0.134417 0.304404 0)
(0.0466098 0.324566 0)
(3 -2.22146e-13 0)
(3 3.37148e-13 0)
(3 1.10312e-12 0)
(3 7.95786e-12 0)
(3 1.28353e-10 0)
(3 -3.19004e-10 0)
(3 1.22975e-08 0)
(3 7.30076e-09 0)
(3 6.44568e-07 0)
(3.00001 2.4274e-06 0)
(3.00008 3.9875e-05 0)
(3.0008 0.000333287 0)
(3.00773 0.00242115 0)
(3.06043 0.0327139 0)
(2.6623 0.100494 0)
(1.0607 0.441553 0)
(0.385727 0.190997 0)
(0.529321 0.221864 0)
(0.462824 0.233194 0)
(0.401829 0.258619 0)
(0.357438 0.287325 0)
(0.292918 0.319062 0)
(0.227981 0.350429 0)
(0.139855 0.382442 0)
(0.0481505 0.403372 0)
(3 -8.50587e-14 0)
(3 1.00664e-13 0)
(3 1.09667e-12 0)
(3 6.63953e-12 0)
(3 8.6899e-11 0)
(3 4.7708e-10 0)
(3 1.04433e-08 0)
(3 -2.71768e-08 0)
(3 9.16568e-07 0)
(3.00001 -9.48502e-06 0)
(3.00003 5.72251e-05 0)
(3.00089 -0.000104809 0)
(3.00375 0.00376852 0)
(3.06966 0.031306 0)
(2.76122 0.0882481 0)
(1.33086 0.543867 0)
(0.366496 0.239534 0)
(0.537451 0.25581 0)
(0.464404 0.267848 0)
(0.408787 0.288829 0)
(0.363252 0.331287 0)
(0.317781 0.364451 0)
(0.236043 0.419205 0)
(0.16061 0.455476 0)
(0.0666327 0.491383 0)
(3 -1.11763e-13 0)
(3 8.498e-14 0)
(3 -4.42732e-13 0)
(3 -9.29508e-12 0)
(3 1.29047e-10 0)
(3 3.72594e-10 0)
(3 5.75048e-09 0)
(3 4.44179e-08 0)
(3 6.12536e-07 0)
(3 1.17402e-06 0)
(3.00003 6.96389e-05 0)
(3.00057 -0.000792082 0)
(3.00144 0.00313378 0)
(3.06825 0.0250308 0)
(2.84042 0.052577 0)
(1.72792 0.618156 0)
(0.394515 0.327693 0)
(0.565919 0.303821 0)
(0.493144 0.30521 0)
(0.407214 0.336678 0)
(0.38538 0.367885 0)
(0.323294 0.428207 0)
(0.254744 0.489208 0)
(0.182134 0.541375 0)
(0.0657934 0.600873 0)
(3 -3.41049e-14 0)
(3 1.04818e-13 0)
(3 -7.66936e-13 0)
(3 4.21404e-12 0)
(3 -4.75854e-11 0)
(3 -1.04376e-10 0)
(3 9.5439e-09 0)
(3 2.01707e-08 0)
(3 5.52583e-07 0)
(3.00001 2.44897e-06 0)
(2.99999 3.49768e-05 0)
(3.00066 0.000241559 0)
(2.99963 0.00230638 0)
(3.06206 0.0198422 0)
(2.89919 0.0343418 0)
(2.12047 0.601032 0)
(0.526759 0.430147 0)
(0.622219 0.376218 0)
(0.555536 0.363954 0)
(0.444919 0.378502 0)
(0.428765 0.405647 0)
(0.352967 0.482931 0)
(0.314593 0.547557 0)
(0.231096 0.620193 0)
(0.139778 0.729247 0)
(3 2.29627e-14 0)
(3 -2.75331e-13 0)
(3 3.42441e-13 0)
(3 1.82755e-11 0)
(3 -1.01996e-10 0)
(3 3.62215e-10 0)
(3 -5.88155e-09 0)
(3 -3.66236e-09 0)
(3 3.86524e-07 0)
(3.00002 1.09527e-06 0)
(2.99992 2.34857e-05 0)
(3.00089 0.000130907 0)
(2.99859 0.00165942 0)
(3.05213 0.0145679 0)
(2.94568 0.0503692 0)
(2.32098 0.469825 0)
(0.645676 0.544764 0)
(0.699104 0.443947 0)
(0.630517 0.433733 0)
(0.527825 0.428169 0)
(0.471062 0.467131 0)
(0.41469 0.529725 0)
(0.357732 0.623038 0)
(0.30102 0.72893 0)
(0.0979838 0.960855 0)
(3 4.29935e-14 0)
(3 -4.44875e-14 0)
(3 1.9855e-12 0)
(3 6.72968e-12 0)
(3 1.43993e-10 0)
(3 8.60466e-10 0)
(3 -2.34208e-09 0)
(3 3.90599e-08 0)
(3 2.19504e-08 0)
(3.00003 2.38472e-06 0)
(2.99987 9.86471e-06 0)
(3.00112 0.00017017 0)
(2.99658 0.00118764 0)
(3.05233 0.0136714 0)
(2.99775 0.0661657 0)
(2.48253 0.37635 0)
(0.792126 0.598204 0)
(0.745924 0.512119 0)
(0.701632 0.501221 0)
(0.624888 0.5025 0)
(0.529863 0.536364 0)
(0.494745 0.587781 0)
(0.435521 0.692704 0)
(0.472389 0.822837 0)
(0.410344 1.1466 0)
(3 -2.5063e-14 0)
(3 3.46964e-13 0)
(3 1.62299e-12 0)
(3 -5.90046e-12 0)
(3 1.34943e-10 0)
(3 3.48914e-11 0)
(3 7.90925e-09 0)
(3 2.869e-07 0)
(3 -2.41466e-07 0)
(3 3.29309e-06 0)
(3.00001 5.69078e-06 0)
(3.00018 -0.000122704 0)
(3.00058 0.00149698 0)
(3.01698 -0.0493946 0)
(3.03167 0.07999 0)
(2.62819 0.310188 0)
(0.992064 0.67015 0)
(0.709055 0.52062 0)
(0.742184 0.556569 0)
(0.713988 0.577384 0)
(0.626241 0.598786 0)
(0.599196 0.638397 0)
(0.545806 0.73975 0)
(0.679623 0.850241 0)
(0.651325 1.05296 0)
(3 4.29677e-15 0)
(3 8.70521e-14 0)
(3 2.43663e-13 0)
(3 2.73241e-12 0)
(3 1.76897e-11 0)
(3 2.36665e-10 0)
(3 1.54781e-09 0)
(3 1.70257e-08 0)
(3 1.22023e-07 0)
(2.99999 1.35665e-06 0)
(3.0001 1.12043e-05 0)
(2.99951 0.000109777 0)
(3.00372 0.000897303 0)
(2.99395 0.00912523 0)
(3.07341 0.0629949 0)
(2.77941 0.254937 0)
(1.31114 0.750971 0)
(0.635114 0.525153 0)
(0.726775 0.553456 0)
(0.752741 0.644311 0)
(0.71911 0.668774 0)
(0.697018 0.698599 0)
(0.676732 0.751971 0)
(0.773917 0.853358 0)
(0.847318 0.916262 0)
(3 1.41351e-14 0)
(3 7.29978e-14 0)
(3 1.46351e-12 0)
(3 2.09753e-11 0)
(3 -5.53856e-11 0)
(3 5.95877e-10 0)
(3 3.53558e-11 0)
(3 2.20307e-08 0)
(3 2.80362e-07 0)
(3 -4.41312e-07 0)
(3.00001 4.31307e-06 0)
(3.00004 8.63717e-05 0)
(3.00086 -0.00250816 0)
(3.00121 0.0039011 0)
(3.07021 0.0406014 0)
(2.91281 0.159936 0)
(1.87611 0.860569 0)
(0.631638 0.57123 0)
(0.726397 0.573217 0)
(0.768561 0.630453 0)
(0.759471 0.691432 0)
(0.784892 0.726848 0)
(0.78226 0.774834 0)
(0.859818 0.82965 0)
(0.929449 0.872239 0)
(3 1.5343e-14 0)
(3 -5.4201e-15 0)
(3 2.37567e-13 0)
(3 -6.07146e-13 0)
(3 8.71617e-12 0)
(3 4.20289e-10 0)
(3 -2.42769e-09 0)
(3 3.92763e-09 0)
(3 6.69637e-08 0)
(3 3.70488e-08 0)
(3 6.22923e-06 0)
(3.00005 -0.000181029 0)
(3.0001 0.000353614 0)
(2.99896 0.00301052 0)
(3.05454 0.0268213 0)
(2.97125 0.0970643 0)
(2.34609 0.775242 0)
(0.802766 0.671871 0)
(0.783325 0.603234 0)
(0.793715 0.630879 0)
(0.800792 0.690108 0)
(0.832198 0.737066 0)
(0.86047 0.78507 0)
(0.925001 0.82983 0)
(0.998619 0.848622 0)
(3 1.00858e-15 0)
(3 1.27704e-14 0)
(3 9.85408e-14 0)
(3 1.24501e-12 0)
(3 6.29897e-12 0)
(3 3.45538e-11 0)
(3 4.51587e-10 0)
(3 3.8093e-09 0)
(3 3.50996e-08 0)
(3 2.65557e-07 0)
(3.00003 2.13702e-06 0)
(2.99987 2.16461e-05 0)
(3.0007 0.000158087 0)
(2.99849 0.00157828 0)
(3.03759 0.0191245 0)
(3.0157 0.105089 0)
(2.62013 0.613024 0)
(1.07439 0.777125 0)
(0.839335 0.657776 0)
(0.839111 0.659164 0)
(0.846684 0.696764 0)
(0.876722 0.740888 0)
(0.918243 0.784332 0)
(0.982491 0.825156 0)
(1.0596 0.832897 0)
(3 -4.41235e-14 0)
(3 5.59832e-14 0)
(3 -6.21462e-14 0)
(3 1.61389e-12 0)
(3 2.88883e-12 0)
(3 3.78852e-11 0)
(3 1.14686e-09 0)
(3 2.94392e-09 0)
(3 7.58871e-08 0)
(3 -1.43146e-07 0)
(3 3.3552e-06 0)
(3.00001 2.38607e-06 0)
(3.00011 8.40174e-05 0)
(3.00065 0.000989101 0)
(3.01026 0.00628145 0)
(3.06311 0.0913895 0)
(2.83547 0.469557 0)
(1.5017 0.877264 0)
(0.847894 0.68664 0)
(0.871313 0.686708 0)
(0.889796 0.715305 0)
(0.917589 0.752134 0)
(0.959785 0.785891 0)
(1.02072 0.816518 0)
(1.09585 0.826306 0)
(3 2.87388e-16 0)
(3 -1.65765e-15 0)
(3 -4.22492e-14 0)
(3 4.20365e-13 0)
(3 1.09949e-12 0)
(3 2.10534e-11 0)
(3 1.02895e-10 0)
(3 1.1014e-09 0)
(3 2.02783e-08 0)
(3 1.1475e-07 0)
(3 1.38669e-06 0)
(3.00003 9.71823e-06 0)
(2.99992 9.98565e-05 0)
(3.00122 0.00077793 0)
(2.99962 0.00745325 0)
(3.07379 0.0562536 0)
(2.98718 0.289957 0)
(2.13406 0.996533 0)
(0.891446 0.753225 0)
(0.914993 0.718912 0)
(0.929634 0.727899 0)
(0.954379 0.749874 0)
(0.993275 0.775262 0)
(1.05365 0.798709 0)
(1.12162 0.815719 0)
(3 -9.48606e-16 0)
(3 -2.52857e-16 0)
(3 3.03972e-14 0)
(3 3.4266e-13 0)
(3 2.34195e-12 0)
(3 2.69849e-11 0)
(3 4.06979e-11 0)
(3 1.16217e-09 0)
(3 2.91432e-09 0)
(3 6.90148e-08 0)
(3 3.07633e-07 0)
(3.00002 4.93651e-06 0)
(2.99994 2.89601e-05 0)
(3.00086 0.000367516 0)
(2.99915 0.00280474 0)
(3.04876 0.0299413 0)
(3.03597 0.178719 0)
(2.59373 0.839153 0)
(1.16353 0.830815 0)
(0.976413 0.75758 0)
(0.977358 0.738488 0)
(0.996286 0.751579 0)
(1.02818 0.772647 0)
(1.0822 0.790337 0)
(1.14436 0.805627 0)
(3 7.23902e-17 0)
(3 8.26285e-15 0)
(3 4.10577e-14 0)
(3 -4.97109e-14 0)
(3 2.69462e-12 0)
(3 5.81322e-12 0)
(3 1.79246e-10 0)
(3 3.07784e-09 0)
(3 -1.31768e-09 0)
(3 4.97654e-08 0)
(3 1.12466e-07 0)
(3 2.413e-06 0)
(3.00001 1.52963e-05 0)
(3.00015 0.000148735 0)
(3.00092 0.00148042 0)
(3.01208 0.0110511 0)
(3.08542 0.131431 0)
(2.87621 0.65258 0)
(1.62002 0.925278 0)
(1.0127 0.788296 0)
(1.01546 0.761399 0)
(1.03507 0.766256 0)
(1.0642 0.779368 0)
(1.1108 0.79009 0)
(1.16562 0.801882 0)
(3 1.44616e-17 0)
(3 1.18165e-15 0)
(3 4.49761e-15 0)
(3 6.5934e-14 0)
(3 3.24e-13 0)
(3 4.50862e-12 0)
(3 2.72763e-11 0)
(3 2.91376e-10 0)
(3 1.77687e-09 0)
(3 2.13753e-08 0)
(3 1.7134e-07 0)
(3 1.5992e-06 0)
(3.00004 1.32126e-05 0)
(2.99988 0.000119913 0)
(3.0016 0.00100314 0)
(2.99855 0.00889621 0)
(3.09018 0.0715573 0)
(3.04219 0.41379 0)
(2.26019 1.03215 0)
(1.09583 0.847622 0)
(1.06415 0.800346 0)
(1.07437 0.787736 0)
(1.09767 0.78838 0)
(1.13877 0.790948 0)
(1.18926 0.796441 0)
(3 2.5105e-16 0)
(3 5.12964e-16 0)
(3 1.26426e-14 0)
(3 3.34981e-13 0)
(3 -1.60696e-13 0)
(3 7.4799e-12 0)
(3 4.43475e-12 0)
(3 3.01825e-10 0)
(3 2.99787e-09 0)
(3 -4.88989e-09 0)
(3 1.16671e-07 0)
(3 7.28031e-08 0)
(3 5.49159e-06 0)
(3.00003 2.56881e-05 0)
(3.00031 0.000245972 0)
(3.00191 0.00301911 0)
(3.02623 0.00995595 0)
(3.1172 0.226768 0)
(2.76334 0.885723 0)
(1.44796 0.925006 0)
(1.12482 0.837368 0)
(1.11966 0.802151 0)
(1.13742 0.796993 0)
(1.17047 0.79524 0)
(1.21378 0.796765 0)
(3 2.20164e-16 0)
(3 7.62618e-16 0)
(3 2.92455e-15 0)
(3 2.04805e-14 0)
(3 1.10479e-13 0)
(3 1.23785e-12 0)
(3 9.3512e-12 0)
(3 8.16217e-11 0)
(3 6.68749e-10 0)
(3 4.34063e-09 0)
(3 4.68939e-08 0)
(3 3.85713e-07 0)
(2.99999 3.40555e-06 0)
(3.00007 2.82844e-05 0)
(2.99978 0.000247541 0)
(3.00287 0.00203002 0)
(2.99824 0.0175599 0)
(3.14085 0.132531 0)
(3.03892 0.643126 0)
(2.05264 1.00129 0)
(1.18632 0.872808 0)
(1.16314 0.825664 0)
(1.17537 0.815234 0)
(1.20183 0.806195 0)
(1.23962 0.800766 0)
(3 -3.41148e-16 0)
(3 7.55178e-16 0)
(3 1.15033e-15 0)
(3 3.68607e-14 0)
(3 3.36969e-13 0)
(3 7.44143e-14 0)
(3 1.07963e-11 0)
(3 -1.32478e-11 0)
(3 6.44221e-10 0)
(3 4.7879e-09 0)
(3 6.4345e-10 0)
(3 1.51353e-07 0)
(3 2.07996e-08 0)
(3.00001 8.82002e-06 0)
(3.00004 5.62849e-05 0)
(3.00054 0.000228261 0)
(3.00272 0.00612317 0)
(3.04586 0.000278283 0)
(3.14568 0.379123 0)
(2.65314 1.03799 0)
(1.43938 0.949314 0)
(1.21646 0.888349 0)
(1.21176 0.835412 0)
(1.23074 0.825105 0)
(1.26294 0.813495 0)
(3 -2.52762e-16 0)
(3 -4.10852e-16 0)
(3 3.66532e-18 0)
(3 4.67094e-15 0)
(3 3.80268e-14 0)
(3 2.63167e-13 0)
(3 2.31041e-12 0)
(3 1.56406e-11 0)
(3 1.49053e-10 0)
(3 1.19883e-09 0)
(3 9.17427e-09 0)
(3 8.06807e-08 0)
(3 5.93439e-07 0)
(2.99998 5.59091e-06 0)
(3.00014 4.45971e-05 0)
(2.99943 0.00038444 0)
(3.00534 0.00299812 0)
(2.99262 0.0256042 0)
(3.19693 0.189971 0)
(3.02689 0.790787 0)
(1.98072 1.01928 0)
(1.30204 0.912243 0)
(1.2539 0.868428 0)
(1.27486 0.836275 0)
(1.29576 0.821528 0)
(3 1.025e-16 0)
(3 4.9743e-16 0)
(3 1.90944e-15 0)
(3 -2.80622e-15 0)
(3 4.47607e-14 0)
(3 1.6788e-13 0)
(3 2.295e-12 0)
(3 3.62061e-11 0)
(3 -1.1365e-11 0)
(3 1.23124e-09 0)
(3 1.02135e-09 0)
(3 5.33602e-08 0)
(3 5.08763e-07 0)
(3 8.21565e-08 0)
(3.00001 1.30354e-05 0)
(3.00005 8.08288e-05 0)
(3.00079 -0.000152876 0)
(3.0028 0.00798137 0)
(3.06496 0.0134624 0)
(3.20996 0.490814 0)
(2.63948 1.09425 0)
(1.51433 0.965168 0)
(1.31518 0.926725 0)
(1.3071 0.855364 0)
(1.32346 0.842633 0)
(3 4.96848e-20 0)
(3 -1.54337e-16 0)
(3 5.83912e-17 0)
(3 8.61135e-16 0)
(3 8.56428e-15 0)
(3 6.15069e-14 0)
(3 5.0187e-13 0)
(3 3.94269e-12 0)
(3 2.70688e-11 0)
(3 2.35536e-10 0)
(3 1.79329e-09 0)
(3 1.45859e-08 0)
(3 1.17768e-07 0)
(3 7.71601e-07 0)
(2.99998 7.4483e-06 0)
(3.0002 5.63004e-05 0)
(2.99913 0.00048386 0)
(3.0067 0.00356565 0)
(2.9925 0.0307531 0)
(3.24111 0.229534 0)
(3.05117 0.864301 0)
(2.03606 1.03473 0)
(1.4067 0.946791 0)
(1.3475 0.894691 0)
(1.36425 0.851495 0)
(3 5.13172e-17 0)
(3 -1.7856e-16 0)
(3 3.93032e-16 0)
(3 3.50292e-16 0)
(3 -3.8929e-17 0)
(3 2.53423e-14 0)
(3 -7.77328e-14 0)
(3 2.50444e-12 0)
(3 2.50653e-11 0)
(3 2.14263e-11 0)
(3 1.30669e-09 0)
(3 -1.29449e-10 0)
(3 7.49457e-08 0)
(3 5.99504e-07 0)
(3 3.10993e-07 0)
(3.00001 2.91818e-06 0)
(3.00005 0.000122746 0)
(3.00094 -0.00219026 0)
(3.0023 0.00969953 0)
(3.0793 0.0294929 0)
(3.26262 0.519489 0)
(2.69558 1.09012 0)
(1.62237 0.980417 0)
(1.41303 0.947639 0)
(1.39656 0.870718 0)
(3 -1.08137e-21 0)
(3 1.16004e-16 0)
(3 -1.5501e-17 0)
(3 6.83759e-17 0)
(3 1.37484e-15 0)
(3 1.07666e-14 0)
(3 8.32542e-14 0)
(3 6.31401e-13 0)
(3 5.08122e-12 0)
(3 3.59628e-11 0)
(3 2.99056e-10 0)
(3 1.91762e-09 0)
(3 1.77078e-08 0)
(3 1.36758e-07 0)
(3 9.69949e-07 0)
(3.00002 8.33357e-06 0)
(2.99999 5.46614e-05 0)
(2.99886 0.000517118 0)
(3.00607 0.00363024 0)
(2.99365 0.0318092 0)
(3.25866 0.262618 0)
(3.11528 0.869194 0)
(2.17181 1.05176 0)
(1.51189 0.965358 0)
(1.4417 0.919239 0)
(3 -1.49355e-16 0)
(3 -1.64812e-16 0)
(3 -6.72985e-16 0)
(3 -7.07124e-16 0)
(3 -1.5165e-15 0)
(3 1.38527e-14 0)
(3 9.82828e-14 0)
(3 2.70645e-15 0)
(3 4.54355e-12 0)
(3 1.20179e-11 0)
(3 2.22923e-10 0)
(3 2.37805e-09 0)
(3 1.14599e-09 0)
(3 7.47928e-08 0)
(3 1.99549e-07 0)
(3 2.74341e-06 0)
(3.00001 3.31483e-05 0)
(3.00007 1.51126e-05 0)
(3.00086 0.000160686 0)
(3.00355 0.00760441 0)
(3.06856 0.0708469 0)
(3.44086 0.540546 0)
(2.91856 1.02589 0)
(1.81882 0.982113 0)
(1.57075 0.974147 0)
(3 5.13189e-17 0)
(3 9.49975e-17 0)
(3 -4.7167e-19 0)
(3 -4.3867e-17 0)
(3 6.56696e-16 0)
(3 -8.67314e-15 0)
(3 1.70719e-14 0)
(3 9.35419e-14 0)
(3 8.12004e-13 0)
(3 6.05138e-12 0)
(3 4.30511e-11 0)
(3 3.48505e-10 0)
(3 2.09823e-09 0)
(3 2.47503e-08 0)
(3 -2.78377e-08 0)
(3 1.03214e-06 0)
(3.00001 1.1306e-05 0)
(3.00002 2.86147e-06 0)
(3.00008 0.000512225 0)
(3.00113 0.00198896 0)
(3.01657 0.0569683 0)
(3.13787 -0.386087 0)
(3.1743 0.890292 0)
(2.38414 1.09178 0)
(1.60018 0.965874 0)
(3 4.55812e-18 0)
(3 5.86269e-17 0)
(3 5.9769e-17 0)
(3 2.14002e-16 0)
(3 2.95541e-17 0)
(3 7.66281e-16 0)
(3 4.27538e-15 0)
(3 3.33709e-14 0)
(3 1.48278e-13 0)
(3 2.22212e-12 0)
(3 9.84429e-12 0)
(3 1.50894e-10 0)
(3 7.09986e-10 0)
(3 5.88314e-09 0)
(3 4.2015e-08 0)
(3 3.1857e-07 0)
(3 2.60493e-06 0)
(3.00005 1.72324e-05 0)
(2.99978 0.000121299 0)
(3.00274 0.00110584 0)
(2.99914 0.00824072 0)
(2.90577 0.0665471 0)
(3.46109 0.501596 0)
(3.0666 1.14208 0)
(1.97433 1.07114 0)
(3 -1.07196e-16 0)
(3 -1.46041e-16 0)
(3 -4.16532e-16 0)
(3 1.93002e-17 0)
(3 -2.73445e-16 0)
(3 2.4977e-17 0)
(3 -6.61825e-16 0)
(3 1.34325e-14 0)
(3 5.97032e-14 0)
(3 7.06489e-13 0)
(3 9.42992e-12 0)
(3 4.74304e-11 0)
(3 6.22288e-10 0)
(3 4.12823e-09 0)
(3 8.11477e-09 0)
(3 1.37221e-07 0)
(3 7.6183e-07 0)
(3 9.15182e-06 0)
(3.00007 5.09787e-05 0)
(2.99988 0.000672877 0)
(3.00397 0.00436744 0)
(2.99859 0.0033035 0)
(3.15722 -0.023232 0)
(3.3692 0.703904 0)
(2.68212 1.07312 0)
(3 -1.02638e-16 0)
(3 -1.02638e-16 0)
(3 -1.81537e-16 0)
(3 -1.74229e-16 0)
(3 -4.8005e-16 0)
(3 -6.56102e-16 0)
(3 -3.76442e-16 0)
(3 2.26306e-15 0)
(3 3.94397e-14 0)
(3 2.89596e-13 0)
(3 2.48488e-12 0)
(3 4.2098e-12 0)
(3 1.1602e-10 0)
(3 2.60755e-10 0)
(3 5.41144e-09 0)
(3 2.07932e-08 0)
(3 2.93445e-07 0)
(3.00001 1.43585e-06 0)
(2.99998 1.63967e-05 0)
(3.00023 9.33399e-05 0)
(2.99983 0.000987231 0)
(3.00969 0.00585441 0)
(2.96936 0.0525102 0)
(3.35143 0.393597 0)
(3.1628 0.986934 0)
(3 -5.58785e-17 0)
(3 5.13189e-17 0)
(3 1.53957e-16 0)
(3 5.13189e-17 0)
(3 -1.01214e-16 0)
(3 4.71509e-17 0)
(3 1.06913e-16 0)
(3 5.68677e-16 0)
(3 2.06327e-14 0)
(3 5.79453e-14 0)
(3 1.53162e-12 0)
(3 5.68858e-12 0)
(3 -7.06804e-11 0)
(3 5.47521e-10 0)
(3 -1.25939e-09 0)
(3 1.9092e-08 0)
(3 -2.48405e-08 0)
(3 8.38212e-07 0)
(3 1.80151e-06 0)
(3.00002 2.52253e-05 0)
(3.00012 0.000269287 0)
(3.00139 -0.00127265 0)
(3.00331 0.00884583 0)
(3.11293 0.0763117 0)
(3.48603 0.601395 0)
(3 5.13189e-17 0)
(3 3.84822e-17 0)
(3 2.05276e-16 0)
(3 2.45327e-16 0)
(3 5.13178e-16 0)
(3 7.36304e-16 0)
(3 1.05235e-15 0)
(3 4.96532e-16 0)
(3 6.00579e-15 0)
(3 1.67255e-15 0)
(3 1.95519e-13 0)
(3 1.2963e-12 0)
(3 1.15882e-11 0)
(3 -1.53635e-10 0)
(3 5.95603e-10 0)
(3 4.03354e-09 0)
(3 3.00231e-08 0)
(3 2.28373e-07 0)
(3 1.73268e-06 0)
(2.99998 1.33166e-05 0)
(3.00017 9.73404e-05 0)
(2.99967 0.000765829 0)
(3.00173 -0.000687399 0)
(3.01048 0.0505524 0)
(3.22219 -0.301894 0)
(3 1.53957e-16 0)
(3 1.53957e-16 0)
(3 8.5737e-18 0)
(3 2.03882e-16 0)
(3 2.04494e-16 0)
(3 3.06101e-16 0)
(3 4.52843e-16 0)
(3 6.55841e-16 0)
(3 1.40316e-15 0)
(3 2.27206e-15 0)
(3 -1.2023e-14 0)
(3 -2.77837e-13 0)
(3 -4.45342e-12 0)
(3 1.16281e-11 0)
(3 8.15533e-11 0)
(3 4.98597e-10 0)
(3 -6.99197e-10 0)
(3 2.63242e-08 0)
(3 1.5665e-07 0)
(3 1.16422e-06 0)
(3.00002 -4.38755e-05 0)
(3.00004 9.52991e-05 0)
(3.00137 0.00106753 0)
(2.99988 0.00778083 0)
(2.92205 0.068246 0)
(3 -5.13189e-17 0)
(3 8.17644e-19 0)
(3 -4.59572e-18 0)
(3 -1.02638e-16 0)
(3 -1.02638e-16 0)
(3 -1.02706e-16 0)
(3 -7.87462e-17 0)
(3 -5.03704e-16 0)
(3 9.24175e-16 0)
(3 -3.20352e-15 0)
(3 1.34563e-14 0)
(3 6.44852e-14 0)
(3 9.46062e-13 0)
(3 4.00979e-13 0)
(3 6.76024e-11 0)
(3 2.41953e-10 0)
(3 -9.8817e-10 0)
(3 1.85167e-08 0)
(3 1.60716e-07 0)
(3 9.49999e-07 0)
(2.99999 9.1622e-06 0)
(3.00004 -3.24035e-05 0)
(3.00001 0.000448037 0)
(3.00283 0.00321595 0)
(3.00083 0.00167394 0)
(3 -1.06102e-64 0)
(3 5.13189e-17 0)
(3 -4.21275e-17 0)
(3 1.53957e-16 0)
(3 2.25659e-16 0)
(3 5.75622e-16 0)
(3 1.72782e-16 0)
(3 3.99264e-16 0)
(3 2.19027e-16 0)
(3 -1.38238e-15 0)
(3 2.37522e-15 0)
(3 4.30834e-15 0)
(3 -3.1448e-14 0)
(3 6.39142e-13 0)
(3 1.02307e-11 0)
(3 7.289e-11 0)
(3 6.16322e-10 0)
(3 -2.34065e-09 0)
(3 3.17544e-08 0)
(3 2.73624e-07 0)
(3 -1.40488e-08 0)
(2.99999 4.82075e-06 0)
(3.00005 2.92845e-05 0)
(3.00057 0.00190689 0)
(3.00146 -0.00150967 0)
(3 1.12273e-16 0)
(3 3.07426e-16 0)
(3 3.26296e-16 0)
(3 5.97444e-16 0)
(3 2.05276e-16 0)
(3 1.53956e-16 0)
(3 -2.56595e-16 0)
(3 -3.59204e-16 0)
(3 -5.35451e-16 0)
(3 -7.70505e-16 0)
(3 -3.22931e-16 0)
(3 2.127e-15 0)
(3 6.82302e-14 0)
(3 3.91153e-13 0)
(3 3.53441e-12 0)
(3 3.23001e-11 0)
(3 4.64408e-12 0)
(3 1.63461e-09 0)
(3 1.19498e-08 0)
(3 7.31665e-08 0)
(3 4.86987e-07 0)
(3.00001 2.0127e-06 0)
(2.99995 2.64119e-05 0)
(3.00028 5.29344e-05 0)
(3.00115 0.00107624 0)
(3 -9.80421e-17 0)
(3 -2.09871e-16 0)
(3 -3.07913e-16 0)
(3 -4.10551e-16 0)
(3 -5.64508e-16 0)
(3 -6.3888e-16 0)
(3 -4.88144e-16 0)
(3 -7.2245e-16 0)
(3 -3.03593e-16 0)
(3 2.79812e-17 0)
(3 4.60189e-16 0)
(3 3.54389e-15 0)
(3 1.35352e-14 0)
(3 4.69593e-14 0)
(3 1.25045e-12 0)
(3 5.90209e-12 0)
(3 5.9095e-12 0)
(3 4.95628e-10 0)
(3 2.44964e-09 0)
(3 3.13452e-08 0)
(3 1.89686e-07 0)
(3 1.82325e-06 0)
(2.99999 5.48598e-06 0)
(3.00007 9.11214e-05 0)
(2.99999 0.000499314 0)
(3 -3.34156e-18 0)
(3 -1.00908e-16 0)
(3 5.10664e-17 0)
(3 2.56252e-16 0)
(3 4.14835e-16 0)
(3 3.87415e-16 0)
(3 5.57096e-16 0)
(3 3.39568e-16 0)
(3 4.64967e-17 0)
(3 -1.35209e-16 0)
(3 -7.74905e-16 0)
(3 8.42924e-16 0)
(3 4.47705e-15 0)
(3 3.90895e-14 0)
(3 1.07766e-13 0)
(3 2.70547e-12 0)
(3 2.55022e-11 0)
(3 1.94229e-10 0)
(3 3.93924e-10 0)
(3 6.12875e-09 0)
(3 2.59779e-08 0)
(3 3.28999e-07 0)
(3 7.16237e-07 0)
(3.00002 4.18105e-05 0)
(3.00008 -0.000104342 0)
(3 1.53957e-16 0)
(3 2.90643e-16 0)
(3 1.82139e-16 0)
(3 1.02638e-16 0)
(3 1.53957e-16 0)
(3 6.31873e-17 0)
(3 2.51418e-16 0)
(3 2.50191e-16 0)
(3 5.36068e-16 0)
(3 4.90123e-16 0)
(3 3.86277e-16 0)
(3 5.3851e-16 0)
(3 1.11998e-15 0)
(3 6.07515e-15 0)
(3 1.15297e-13 0)
(3 7.82547e-13 0)
(3 4.24517e-12 0)
(3 6.22252e-11 0)
(3 1.37821e-10 0)
(3 3.06854e-09 0)
(3 1.32414e-08 0)
(3 1.12678e-07 0)
(3 -3.03879e-07 0)
(3 6.93137e-06 0)
(3.00006 1.91322e-05 0)
(3 -1.02638e-16 0)
(3 -3.59232e-16 0)
(3 -3.77615e-16 0)
(3 -7.69784e-16 0)
(3 -7.69784e-16 0)
(3 -7.76008e-16 0)
(3 -5.5114e-16 0)
(3 -4.5005e-16 0)
(3 -4.42698e-16 0)
(3 -9.71123e-17 0)
(3 -3.4565e-17 0)
(3 5.39778e-16 0)
(3 1.84808e-16 0)
(3 4.20385e-15 0)
(3 5.17827e-14 0)
(3 3.8912e-13 0)
(3 2.81944e-12 0)
(3 4.37252e-11 0)
(3 -9.53519e-11 0)
(3 1.15445e-09 0)
(3 4.80192e-09 0)
(3 4.94982e-08 0)
(3 3.90536e-07 0)
(3 2.92427e-06 0)
(3.00002 2.38945e-05 0)
(3 -1.02638e-16 0)
(3 -1.53957e-16 0)
(3 -1.53957e-16 0)
(3 -5.13189e-17 0)
(3 -5.13189e-17 0)
(3 -1.02638e-16 0)
(3 -8.73627e-17 0)
(3 -6.07929e-16 0)
(3 -8.61693e-16 0)
(3 -1.05378e-15 0)
(3 -1.23434e-15 0)
(3 -1.35772e-15 0)
(3 -1.22514e-15 0)
(3 -1.65918e-16 0)
(3 9.83593e-15 0)
(3 -8.38738e-15 0)
(3 5.34602e-13 0)
(3 1.45159e-12 0)
(3 1.61952e-11 0)
(3 -1.48378e-11 0)
(3 4.61817e-10 0)
(3 5.08874e-09 0)
(3 4.27018e-08 0)
(3 4.06326e-07 0)
(3.00002 1.78756e-06 0)
(3 5.13189e-17 0)
(3 -5.13189e-17 0)
(3 5.13189e-17 0)
(3 9.1912e-18 0)
(3 9.34465e-17 0)
(3 -1.02638e-16 0)
(3 -1.02638e-16 0)
(3 -1.02638e-16 0)
(3 -1.53331e-16 0)
(3 -4.06083e-16 0)
(3 -5.0586e-16 0)
(3 -6.26742e-16 0)
(3 -5.26354e-16 0)
(3 -5.65586e-16 0)
(3 -4.45828e-15 0)
(3 -1.35827e-14 0)
(3 1.46562e-13 0)
(3 5.33522e-13 0)
(3 -4.09762e-12 0)
(3 -2.58493e-11 0)
(3 -5.91147e-10 0)
(3 9.74484e-09 0)
(3 1.05272e-09 0)
(3 2.94872e-07 0)
(3.00002 9.90774e-07 0)
(3 5.13189e-17 0)
(3 1.55253e-16 0)
(3 5.00227e-17 0)
(3 6.51061e-17 0)
(3 3.75317e-17 0)
(3 -2.56595e-16 0)
(3 -5.13189e-16 0)
(3 -6.67143e-16 0)
(3 -8.72384e-16 0)
(3 -9.71013e-16 0)
(3 -1.1045e-15 0)
(3 -9.08479e-16 0)
(3 -1.12436e-15 0)
(3 -1.18133e-15 0)
(3 7.33064e-16 0)
(3 1.15696e-14 0)
(3 3.65064e-15 0)
(3 8.2399e-13 0)
(3 2.5624e-12 0)
(3 5.37264e-11 0)
(3 3.21882e-10 0)
(3 1.73481e-09 0)
(3 2.90739e-09 0)
(3 4.60863e-08 0)
(3.00002 2.25332e-07 0)
(3 5.13189e-17 0)
(3 2.05276e-16 0)
(3 3.07913e-16 0)
(3 3.07913e-16 0)
(3 4.10551e-16 0)
(3 4.6187e-16 0)
(3 4.6187e-16 0)
(3 4.58147e-16 0)
(3 5.56311e-16 0)
(3 3.65689e-16 0)
(3 3.21297e-16 0)
(3 9.19807e-17 0)
(3 -5.66845e-17 0)
(3 -1.48427e-16 0)
(3 6.17721e-17 0)
(3 2.52272e-15 0)
(3 -1.40447e-16 0)
(3 2.13237e-13 0)
(3 4.83212e-13 0)
(3 1.37403e-11 0)
(3 8.10081e-11 0)
(3 5.99383e-10 0)
(3 2.03687e-11 0)
(3 1.56044e-08 0)
(3.00002 5.17809e-08 0)
(3 -5.13189e-17 0)
(3 -1.02638e-16 0)
(3 -3.07913e-16 0)
(3 -3.73686e-16 0)
(3 -4.51038e-16 0)
(3 -5.22786e-16 0)
(3 -2.98425e-16 0)
(3 -1.02899e-16 0)
(3 -1.02681e-16 0)
(3 -1.02762e-16 0)
(3 -2.10624e-17 0)
(3 -8.69965e-17 0)
(3 -1.56038e-16 0)
(3 -2.08119e-16 0)
(3 1.97247e-16 0)
(3 3.00942e-15 0)
(3 -4.60261e-15 0)
(3 2.03811e-13 0)
(3 5.85509e-13 0)
(3 1.24619e-11 0)
(3 7.24754e-11 0)
(3 2.5939e-10 0)
(3 1.14213e-09 0)
(3 9.77154e-09 0)
(3.00002 8.50937e-08 0)
(3 -1.02638e-16 0)
(3 -2.56595e-16 0)
(3 -5.64508e-16 0)
(3 -7.18465e-16 0)
(3 -8.72421e-16 0)
(3 -9.75059e-16 0)
(3 -9.72616e-16 0)
(3 -1.12902e-15 0)
(3 -1.23182e-15 0)
(3 -9.93677e-16 0)
(3 -1.28275e-15 0)
(3 -6.63148e-16 0)
(3 -6.63905e-16 0)
(3 -5.67389e-16 0)
(3 -3.73948e-16 0)
(3 -1.44977e-16 0)
(3 2.3431e-16 0)
(3 -1.63965e-15 0)
(3 -2.58301e-14 0)
(3 -4.31209e-13 0)
(3 -3.85556e-12 0)
(3 -1.17432e-11 0)
(3 -2.07146e-10 0)
(3 -1.68048e-09 0)
(3.00002 -1.89165e-08 0)
(1.2016 1.0947 0)
(0.322606 0.575685 0)
(-0.632184 -0.140453 0)
(-0.420171 -0.229295 0)
(-0.494726 -0.14092 0)
(-0.461517 0.0114346 0)
(-0.843418 0.177744 0)
(-1.02391 0.165782 0)
(-1.11666 0.103243 0)
(-1.14572 0.0682283 0)
(-1.14843 0.0221686 0)
(-1.18134 0.0310466 0)
(-1.25544 -0.00514125 0)
(-1.3207 -0.0149974 0)
(-1.36585 -0.0169641 0)
(-1.38802 -0.0141452 0)
(-1.39603 -0.0129742 0)
(-1.39848 -0.0101587 0)
(-1.39928 -0.00781649 0)
(-1.40871 -0.00686827 0)
(-1.41649 -0.004515 0)
(-1.42947 0.000484946 0)
(-1.43694 0.00598541 0)
(-1.44097 0.00596406 0)
(-1.44252 0.00427298 0)
(-1.44167 0.00252907 0)
(-1.4337 0.000817904 0)
(-1.42578 0.00185914 0)
(-1.39889 0.000819955 0)
(-1.37502 0.00138643 0)
(-1.33064 0.00520953 0)
(-1.28042 0.00495398 0)
(-1.21778 7.33892e-05 0)
(-1.1581 -0.00741947 0)
(-1.09687 -0.0187184 0)
(-1.03063 -0.0317953 0)
(-0.959819 -0.042257 0)
(-0.887963 -0.0506327 0)
(-0.816338 -0.0423306 0)
(-0.72727 -0.039944 0)
(-0.640932 -0.0364968 0)
(-0.559448 -0.0172187 0)
(-0.474928 -0.00976672 0)
(-0.393662 0.00126693 0)
(-0.332815 0.0193662 0)
(-0.266527 0.00229613 0)
(-0.180204 -0.0145448 0)
(-0.098632 -0.0191798 0)
(-0.0210157 -0.0278745 0)
(0.0686892 -0.0286227 0)
(0.137066 -0.0242519 0)
(0.206767 -0.0250584 0)
(0.270606 -0.0239397 0)
(0.331699 -0.0244828 0)
(0.389282 -0.0246629 0)
(0.443807 -0.0239856 0)
(0.494785 -0.0227446 0)
(0.542527 -0.021338 0)
(0.587694 -0.0201478 0)
(0.630029 -0.0186695 0)
(0.669411 -0.0169252 0)
(0.706532 -0.0157563 0)
(0.741794 -0.0145248 0)
(0.775311 -0.0133312 0)
(0.806329 -0.0122309 0)
(0.835658 -0.0112334 0)
(0.863339 -0.0105273 0)
(0.889442 -0.00968527 0)
(0.914692 -0.00885393 0)
(0.938202 -0.00843995 0)
(0.961042 -0.0076269 0)
(0.982138 -0.0072124 0)
(1.00273 -0.00655649 0)
(1.02139 -0.00610559 0)
(1.0397 -0.00537834 0)
(1.05613 -0.00488463 0)
(1.07234 -0.0041743 0)
(1.08673 -0.0035378 0)
(1.10099 -0.00289189 0)
(1.1135 -0.00230391 0)
(1.12537 -0.0015135 0)
(1.13589 -0.00112234 0)
(1.14526 -0.000572868 0)
(1.1532 4.53155e-05 0)
(1.16099 -0.000101488 0)
(1.16702 0.000374009 0)
(1.17287 0.000544255 0)
(1.17791 0.000637281 0)
(1.18136 0.001087 0)
(1.18474 0.00149186 0)
(1.18692 0.001491 0)
(1.18774 0.00189835 0)
(1.18763 0.00226366 0)
(1.18684 0.00260545 0)
(1.18504 0.00281074 0)
(1.182 0.00284096 0)
(1.17789 0.00284058 0)
(1.17274 0.00321176 0)
(1.16736 0.00340662 0)
(1.15781 0.00395379 0)
(1.23228 1.00662 0)
(1.11107 0.789029 0)
(0.724442 0.579825 0)
(0.496969 0.246136 0)
(-0.108368 0.122811 0)
(-0.255821 0.207536 0)
(-0.705695 0.183267 0)
(-0.793822 0.00640506 0)
(-0.852287 -0.00894877 0)
(-0.802827 -0.0351066 0)
(-0.783042 -0.0265369 0)
(-0.802642 -0.0117231 0)
(-0.888156 -0.00284802 0)
(-0.95564 0.0463164 0)
(-0.996743 0.057512 0)
(-1.01367 0.0408239 0)
(-1.01887 0.0267208 0)
(-1.01792 0.0146792 0)
(-1.01747 0.0101107 0)
(-1.02325 0.00923869 0)
(-1.02702 -0.00257357 0)
(-1.05028 -0.00230759 0)
(-1.06799 -0.00877278 0)
(-1.07912 -0.0074745 0)
(-1.08299 -0.00926709 0)
(-1.08325 -0.00732746 0)
(-1.07036 -0.0050614 0)
(-1.05951 -0.000962682 0)
(-1.02643 -0.00678928 0)
(-0.994667 -0.00568403 0)
(-0.947601 -0.0158455 0)
(-0.898986 -0.0217362 0)
(-0.82869 -0.0335512 0)
(-0.764322 -0.038921 0)
(-0.701315 -0.0352315 0)
(-0.626113 -0.0312323 0)
(-0.547475 -0.0309682 0)
(-0.467158 -0.0314043 0)
(-0.400433 -0.035738 0)
(-0.27582 -0.0647152 0)
(-0.165174 -0.0748628 0)
(-0.0620686 -0.0899315 0)
(0.0767809 -0.105865 0)
(0.190144 -0.114586 0)
(0.320531 -0.116164 0)
(0.434031 -0.120414 0)
(0.533221 -0.123601 0)
(0.608837 -0.112596 0)
(0.679367 -0.109193 0)
(0.734826 -0.102733 0)
(0.785697 -0.0905129 0)
(0.834747 -0.0851112 0)
(0.879337 -0.0791437 0)
(0.920203 -0.073224 0)
(0.956113 -0.0664941 0)
(0.989626 -0.0615161 0)
(1.02013 -0.0562305 0)
(1.04903 -0.0513907 0)
(1.0772 -0.0469592 0)
(1.10338 -0.042305 0)
(1.12858 -0.0380729 0)
(1.15304 -0.0346218 0)
(1.17589 -0.0316181 0)
(1.19832 -0.0287529 0)
(1.21948 -0.0256771 0)
(1.24028 -0.0235544 0)
(1.26015 -0.0213488 0)
(1.27885 -0.0198329 0)
(1.29725 -0.0184211 0)
(1.31487 -0.0163766 0)
(1.33167 -0.0148885 0)
(1.3481 -0.0131973 0)
(1.36308 -0.0115548 0)
(1.37739 -0.00999166 0)
(1.3908 -0.00855729 0)
(1.40307 -0.00732779 0)
(1.41514 -0.00606688 0)
(1.4262 -0.00515748 0)
(1.43718 -0.00447784 0)
(1.44747 -0.00316976 0)
(1.45694 -0.00276775 0)
(1.46654 -0.00168822 0)
(1.47445 -0.000385483 0)