/*--------------------------------*- C++ -*----------------------------------*\
| =========                 |                                                 |
| \\      /  F ield         | OpenFOAM: The Open Source CFD Toolbox           |
|  \\    /   O peration     | Version:  v2106                                 |
|   \\  /    A nd           | Website:  www.openfoam.com                      |
|    \\/     M anipulation  |                                                 |
\*---------------------------------------------------------------------------*/
FoamFile
{
    version     2.0;
    format      ascii;
    arch        "LSB;label=32;scalar=64";
    class       volScalarField;
    location    "17";
    object      Mo;
}
// * * * * * * * * * * * * * * * * * * * * * * * * * * * * * * * * * * * * * //

dimensions      [0 0 0 0 0 0 0];

internalField   nonuniform List<scalar> 
5250
(
3.01265
3.01265
3.01265
3.01265
3.01265
3.01265
3.01265
3.01265
3.01263
3.01252
3.0115
3.00271
2.93287
2.67018
1.89279
0.710945
0.175158
0.359458
0.286812
0.242935
0.210329
0.165874
0.124692
0.0789173
0.0380597
3.01265
3.01265
3.01265
3.01265
3.01265
3.01265
3.01265
3.01265
3.01264
3.01253
3.01153
3.00304
2.93468
2.67672
1.90582
0.728568
0.172657
0.361087
0.287967
0.244945
0.213579
0.171231
0.133585
0.0935677
0.0686963
3.01265
3.01265
3.01265
3.01265
3.01265
3.01265
3.01265
3.01265
3.01264
3.01253
3.01159
3.00375
2.93868
2.69142
1.93748
0.778741
0.176478
0.36765
0.29467
0.252435
0.224029
0.185602
0.152835
0.122861
0.108619
3.01265
3.01265
3.01265
3.01265
3.01265
3.01265
3.01265
3.01265
3.01264
3.01255
3.01166
3.00475
2.94441
2.71299
1.98147
0.848849
0.191708
0.378915
0.309479
0.265989
0.240503
0.206828
0.181595
0.158823
0.150114
3.01265
3.01265
3.01265
3.01265
3.01265
3.01265
3.01265
3.01265
3.01264
3.01257
3.01176
3.00591
2.95156
2.73981
2.03955
0.944893
0.216813
0.393392
0.330446
0.285201
0.262817
0.234662
0.213388
0.199791
0.19547
3.01265
3.01265
3.01265
3.01265
3.01265
3.01265
3.01265
3.01265
3.01264
3.01258
3.012
3.0072
2.9598
2.77076
2.1085
1.07581
0.259992
0.414223
0.361423
0.311952
0.291162
0.266756
0.253631
0.245244
0.245052
3.01265
3.01265
3.01265
3.01265
3.01265
3.01265
3.01265
3.01265
3.01264
3.0126
3.01214
3.00839
2.9677
2.80137
2.18763
1.20652
0.32907
0.446189
0.40375
0.351297
0.330123
0.30598
0.299716
0.294972
0.303268
3.01265
3.01265
3.01265
3.01265
3.01265
3.01265
3.01265
3.01265
3.01264
3.01262
3.01212
3.0094
2.97429
2.82655
2.26707
1.28038
0.396434
0.479031
0.448409
0.402179
0.373394
0.354887
0.353335
0.357885
0.375958
3.01265
3.01265
3.01265
3.01265
3.01265
3.01265
3.01265
3.01265
3.01264
3.01263
3.01222
3.01016
2.98152
2.85395
2.35353
1.36878
0.459026
0.502853
0.485767
0.455847
0.428521
0.411103
0.418672
0.424043
0.472821
3.01265
3.01265
3.01265
3.01265
3.01265
3.01265
3.01265
3.01265
3.01264
3.01264
3.01226
3.01092
2.98614
2.88301
2.44072
1.47381
0.531541
0.512491
0.518766
0.50802
0.489251
0.473106
0.490896
0.520079
0.646035
3.01265
3.01265
3.01265
3.01265
3.01265
3.01265
3.01265
3.01265
3.01265
3.01262
3.01242
3.01047
2.99511
2.89701
2.53154
1.58879
0.638925
0.499164
0.53536
0.55839
0.551949
0.546153
0.574481
0.655579
0.875796
3.01265
3.01265
3.01265
3.01265
3.01265
3.01265
3.01265
3.01265
3.01265
3.01263
3.01251
3.01131
3.00254
2.92353
2.6365
1.74223
0.808596
0.473985
0.541691
0.573065
0.607443
0.623501
0.656282
0.766359
0.937818
3.01265
3.01265
3.01265
3.01265
3.01265
3.01265
3.01265
3.01265
3.01265
3.01265
3.01255
3.01217
3.00576
2.9526
2.74675
2.06948
1.07903
0.496358
0.559123
0.585986
0.622065
0.679614
0.727674
0.834562
0.962369
3.01265
3.01265
3.01265
3.01265
3.01265
3.01265
3.01265
3.01265
3.01265
3.01264
3.01261
3.01206
3.0089
2.97032
2.81258
2.24547
1.36149
0.59443
0.604237
0.61234
0.639363
0.696914
0.762824
0.863172
0.976484
3.01265
3.01265
3.01265
3.01265
3.01265
3.01265
3.01265
3.01265
3.01265
3.01264
3.01264
3.0122
3.01063
2.98243
2.87323
2.39793
1.53564
0.760537
0.662837
0.657781
0.674084
0.721059
0.786057
0.882587
0.981577
3.01265
3.01265
3.01265
3.01265
3.01265
3.01265
3.01265
3.01265
3.01265
3.01265
3.01263
3.01243
3.01088
2.99622
2.9053
2.55047
1.68774
0.9609
0.701517
0.716086
0.726555
0.754425
0.805626
0.884759
0.978656
3.01265
3.01265
3.01265
3.01265
3.01265
3.01265
3.01265
3.01265
3.01265
3.01265
3.01263
3.01262
3.01155
3.00743
2.94394
2.72376
1.96912
1.24267
0.724936
0.75287
0.767227
0.788438
0.828315
0.891964
0.975006
3.01265
3.01265
3.01265
3.01265
3.01265
3.01265
3.01265
3.01265
3.01265
3.01265
3.01264
3.01262
3.01202
3.00933
2.97144
2.82907
2.31533
1.52769
0.846805
0.792458
0.801605
0.82098
0.855243
0.90718
0.977637
3.01265
3.01265
3.01265
3.01265
3.01265
3.01265
3.01265
3.01265
3.01265
3.01265
3.01265
3.01262
3.01236
3.01033
2.99173
2.88158
2.50674
1.71197
1.05318
0.84235
0.847863
0.864255
0.892021
0.932901
0.98887
3.01265
3.01265
3.01265
3.01265
3.01265
3.01265
3.01265
3.01265
3.01265
3.01265
3.01265
3.01262
3.01262
3.01115
3.00658
2.9246
2.71402
1.92693
1.36393
0.881581
0.894305
0.907102
0.92875
0.960136
1.00457
3.01265
3.01265
3.01265
3.01265
3.01265
3.01265
3.01265
3.01265
3.01265
3.01265
3.01265
3.01264
3.01259
3.0121
3.00818
2.97614
2.81627
2.33121
1.63711
1.0213
0.937324
0.941179
0.957944
0.985965
1.02371
3.01265
3.01265
3.01265
3.01265
3.01265
3.01265
3.01265
3.01265
3.01265
3.01265
3.01265
3.01264
3.0126
3.01256
3.00946
3.00755
2.86201
2.63078
1.87561
1.27355
0.996085
0.984217
0.995351
1.01631
1.04694
3.01265
3.01265
3.01265
3.01265
3.01265
3.01265
3.01265
3.01265
3.01265
3.01265
3.01265
3.01265
3.01264
3.01255
3.01178
3.00588
2.95935
2.76208
2.17158
1.58247
1.05847
1.02392
1.02459
1.04247
1.06961
3.01265
3.01265
3.01265
3.01265
3.01265
3.01265
3.01265
3.01265
3.01265
3.01265
3.01265
3.01265
3.01264
3.01258
3.01248
3.00842
3.00802
2.82633
2.58717
1.8949
1.28915
1.07774
1.06251
1.07505
1.09555
3.01265
3.01265
3.01265
3.01265
3.01265
3.01265
3.01265
3.01265
3.01265
3.01265
3.01265
3.01265
3.01265
3.01263
3.01252
3.01147
3.00399
2.94327
2.72424
2.05561
1.63694
1.13048
1.10256
1.10585
1.12292
3.01265
3.01265
3.01265
3.01265
3.01265
3.01265
3.01265
3.01265
3.01265
3.01265
3.01265
3.01265
3.01265
3.01264
3.01258
3.01249
3.00807
3.00654
2.81108
2.52579
1.90149
1.33881
1.15603
1.14171
1.15484
3.01265
3.01265
3.01265
3.01265
3.01265
3.01265
3.01265
3.01265
3.01265
3.01265
3.01265
3.01265
3.01265
3.01265
3.01263
3.0125
3.01131
3.00327
2.93629
2.72042
2.08478
1.68712
1.2058
1.17976
1.18291
3.01265
3.01265
3.01265
3.01265
3.01265
3.01265
3.01265
3.01265
3.01265
3.01265
3.01265
3.01265
3.01265
3.01265
3.01263
3.01254
3.01246
3.00791
3.00701
2.81441
2.53712
1.94003
1.4129
1.23436
1.21559
3.01265
3.01265
3.01265
3.01265
3.01265
3.01265
3.01265
3.01265
3.01265
3.01265
3.01265
3.01265
3.01265
3.01265
3.01265
3.01263
3.0125
3.01133
3.00399
2.93794
2.73709
2.14821
1.76104
1.28753
1.25708
3.01265
3.01265
3.01265
3.01265
3.01265
3.01265
3.01265
3.01265
3.01265
3.01265
3.01265
3.01265
3.01265
3.01265
3.01265
3.01264
3.01259
3.01277
3.00881
3.00482
2.83786
2.58235
2.01173
1.51545
1.31739
3.01265
3.01265
3.01265
3.01265
3.01265
3.01265
3.01265
3.01265
3.01265
3.01265
3.01265
3.01265
3.01265
3.01265
3.01265
3.01265
3.01263
3.01256
3.01149
3.00586
2.94604
2.77175
2.25545
1.85113
1.396
3.01265
3.01265
3.01265
3.01265
3.01265
3.01265
3.01265
3.01265
3.01265
3.01265
3.01265
3.01265
3.01265
3.01265
3.01265
3.01265
3.01265
3.01267
3.01313
3.01036
3.00688
2.86588
2.68047
2.09651
1.65847
3.01265
3.01265
3.01265
3.01265
3.01265
3.01265
3.01265
3.01265
3.01265
3.01265
3.01265
3.01265
3.01265
3.01265
3.01265
3.01265
3.01265
3.01264
3.01255
3.01173
3.0066
2.96022
2.78848
2.43259
1.99889
3.01265
3.01265
3.01265
3.01265
3.01265
3.01265
3.01265
3.01265
3.01265
3.01265
3.01265
3.01265
3.01265
3.01265
3.01265
3.01265
3.01265
3.01264
3.01263
3.0126
3.01096
3.00168
2.92539
2.75558
2.24867
3.01265
3.01265
3.01265
3.01265
3.01265
3.01265
3.01265
3.01265
3.01265
3.01265
3.01265
3.01265
3.01265
3.01265
3.01265
3.01265
3.01265
3.01265
3.01263
3.0126
3.0118
3.00607
3.00307
2.82875
2.69222
3.01265
3.01265
3.01265
3.01265
3.01265
3.01265
3.01265
3.01265
3.01265
3.01265
3.01265
3.01265
3.01265
3.01265
3.01265
3.01265
3.01265
3.01265
3.01265
3.01263
3.01255
3.01149
3.00698
2.9524
2.77731
3.01265
3.01265
3.01265
3.01265
3.01265
3.01265
3.01265
3.01265
3.01265
3.01265
3.01265
3.01265
3.01265
3.01265
3.01265
3.01265
3.01265
3.01265
3.01265
3.01264
3.0126
3.01234
3.01112
3.0023
2.91546
3.01265
3.01265
3.01265
3.01265
3.01265
3.01265
3.01265
3.01265
3.01265
3.01265
3.01265
3.01265
3.01265
3.01265
3.01265
3.01265
3.01265
3.01265
3.01265
3.01265
3.01264
3.01256
3.01207
3.00711
3.00958
3.01265
3.01265
3.01265
3.01265
3.01265
3.01265
3.01265
3.01265
3.01265
3.01265
3.01265
3.01265
3.01265
3.01265
3.01265
3.01265
3.01265
3.01265
3.01265
3.01265
3.01265
3.01263
3.01253
3.01169
3.00762
3.01265
3.01265
3.01265
3.01265
3.01265
3.01265
3.01265
3.01265
3.01265
3.01265
3.01265
3.01265
3.01265
3.01265
3.01265
3.01265
3.01265
3.01265
3.01265
3.01265
3.01265
3.01265
3.01261
3.01239
3.01138
3.01265
3.01265
3.01265
3.01265
3.01265
3.01265
3.01265
3.01265
3.01265
3.01265
3.01265
3.01265
3.01265
3.01265
3.01265
3.01265
3.01265
3.01265
3.01265
3.01265
3.01265
3.01265
3.01261
3.01237
3.01219
3.01265
3.01265
3.01265
3.01265
3.01265
3.01265
3.01265
3.01265
3.01265
3.01265
3.01265
3.01265
3.01265
3.01265
3.01265
3.01265
3.01265
3.01265
3.01265
3.01265
3.01265
3.01265
3.01265
3.01263
3.01255
3.01265
3.01265
3.01265
3.01265
3.01265
3.01265
3.01265
3.01265
3.01265
3.01265
3.01265
3.01265
3.01265
3.01265
3.01265
3.01265
3.01265
3.01265
3.01265
3.01265
3.01265
3.01265
3.01265
3.01264
3.01264
3.01265
3.01265
3.01265
3.01265
3.01265
3.01265
3.01265
3.01265
3.01265
3.01265
3.01265
3.01265
3.01265
3.01265
3.01265
3.01265
3.01265
3.01265
3.01265
3.01265
3.01265
3.01265
3.01265
3.01265
3.01265
3.01265
3.01265
3.01265
3.01265
3.01265
3.01265
3.01265
3.01265
3.01265
3.01265
3.01265
3.01265
3.01265
3.01265
3.01265
3.01265
3.01265
3.01265
3.01265
3.01265
3.01265
3.01265
3.01265
3.01265
3.01265
3.01265
3.01265
3.01265
3.01265
3.01265
3.01265
3.01265
3.01265
3.01265
3.01265
3.01265
3.01265
3.01265
3.01265
3.01265
3.01265
3.01265
3.01265
3.01265
3.01265
3.01265
3.01265
3.01265
3.01265
3.01265
3.01265
3.01265
3.01265
3.01265
3.01265
3.01265
3.01265
3.01265
3.01265
3.01265
3.01265
3.01265
3.01265
3.01265
3.01265
3.01265
3.01265
3.01265
3.01265
3.01265
3.01265
3.01265
3.01265
3.01265
3.01265
3.01265
3.01265
3.01265
3.01265
3.01265
3.01265
3.01265
3.01265
3.01265
3.01265
3.01265
3.01265
3.01265
3.01265
3.01265
3.01265
3.01265
3.01265
3.01265
3.01265
3.01265
3.01265
3.01265
3.01265
3.01265
3.01265
3.01265
3.01265
3.01265
3.01265
3.01265
3.01265
3.01265
3.01265
3.01265
3.01265
3.01265
3.01265
3.01265
3.01265
3.01265
3.01265
3.01265
3.01265
3.01265
3.01265
3.01265
3.01265
3.01265
3.01265
3.01265
3.01265
3.01265
3.01265
3.01265
3.01265
3.01265
3.01265
3.01265
3.01265
3.01265
3.01265
3.01265
3.01265
3.01265
3.01265
3.01265
3.01265
3.01265
3.01265
3.01265
3.01265
3.01265
3.01265
3.01265
1.13383
0.556062
0.360346
0.287765
0.37406
0.290645
0.434439
0.614295
0.742301
0.794987
0.806699
0.801951
0.800091
0.815666
0.86322
0.915259
0.951237
0.96733
0.96991
0.965407
0.962988
0.961677
0.964125
0.966711
0.973003
0.979326
0.984043
0.987219
0.988537
0.9861
0.982234
0.967275
0.952339
0.917753
0.871137
0.817384
0.763902
0.705594
0.638958
0.576566
0.519651
0.461429
0.399119
0.336459
0.273662
0.221747
0.182953
0.124604
0.0706969
0.0282225
0.0427584
0.0825492
0.127989
0.170086
0.20979
0.24819
0.28421
0.317373
0.348524
0.378402
0.406846
0.43354
0.458863
0.483058
0.506351
0.528401
0.549422
0.56934
0.588509
0.606982
0.624821
0.642275
0.659197
0.67577
0.691648
0.707222
0.722145
0.736835
0.7509
0.764749
0.77792
0.79089
0.80321
0.815365
0.827016
0.838511
0.849559
0.860434
0.870733
0.880854
0.890245
0.899524
0.908271
0.916995
0.925739
0.93452
0.943607
0.953557
0.962049
0.970419
1.10762
0.946106
0.605364
0.432268
0.120102
0.120037
0.252519
0.451934
0.531951
0.561985
0.526708
0.50596
0.502465
0.540026
0.586583
0.635862
0.664657
0.674415
0.671532
0.666824
0.663878
0.662411
0.664301
0.665764
0.67247
0.678711
0.687057
0.69244
0.695487
0.69211
0.686212
0.667491
0.648634
0.620093
0.571797
0.521367
0.470479
0.409386
0.338008
0.278631
0.224458
0.154366
0.0977036
0.0697348
0.12158
0.185459
0.263718
0.331436
0.378153
0.423659
0.462207
0.495762
0.530004
0.558922
0.585143
0.61144
0.635571
0.657896
0.678924
0.69934
0.719098
0.737973
0.756242
0.773944
0.791303
0.807821
0.823793
0.839007
0.853745
0.868028
0.882059
0.895841
0.909376
0.922649
0.93569
0.948499
0.960902
0.973027
0.984637
0.995981
1.00684
1.01752
1.02776
1.03788
1.04764
1.05729
1.06667
1.07592
1.08483
1.09352
1.10165
1.1096
1.11706
1.12451
1.13195
1.13947
1.1473
1.15607
1.16425
1.1722
1.07117
1.07982
0.963167
0.814865
0.582937
0.413393
0.339928
0.383948
0.32619
0.226158
0.121937
0.0249977
0.0453906
0.116704
0.182752
0.316305
0.367777
0.395117
0.389178
0.37723
0.368673
0.365097
0.370171
0.374444
0.384447
0.391641
0.398496
0.398675
0.399749
0.39639
0.394656
0.379951
0.364231
0.332483
0.277512
0.220773
0.164949
0.114638
0.116793
0.181722
0.316461
0.41217
0.4919
0.55902
0.604105
0.6378
0.671483
0.699398
0.716923
0.734962
0.751961
0.76766
0.785155
0.802108
0.818636
0.835279
0.85113
0.866703
0.881716
0.896698
0.911549
0.926435
0.940854
0.955128
0.969224
0.982777
0.995851
1.00824
1.02022
1.032
1.04379
1.05556
1.06732
1.07885
1.09019
1.10125
1.11188
1.12233
1.13246
1.14252
1.15222
1.16176
1.17078
1.17967
1.18819
1.19666
1.20488
1.21308
1.22099
1.22891
1.23647
1.24394
1.25106
1.25801
1.26487
1.27179
1.27898
1.28721
1.29458
1.3025
1.079
1.17191
1.18114
1.12525
0.987128
0.818625
0.644269
0.623244
0.602493
0.552261
0.471227
0.366674
0.273694
0.253273
0.243647
0.259701
0.224537
0.170927
0.124965
0.0685815
0.032915
0.00607828
0.0350298
0.0539335
0.0853386
0.0994594
0.141635
0.149477
0.169374
0.16577
0.159978
0.138051
0.113113
0.0903793
0.0993293
0.1706
0.323751
0.476245
0.601238
0.683951
0.759209
0.806577
0.841497
0.862126
0.88218
0.894215
0.905791
0.919931
0.930891
0.938285
0.946951
0.954313
0.962728
0.97186
0.981618
0.992099
1.00332
1.01441
1.02507
1.03554
1.04576
1.05634
1.06752
1.07882
1.09048
1.10185
1.11286
1.12332
1.13346
1.1434
1.15326
1.1632
1.17325
1.1834
1.19358
1.20353
1.21336
1.2231
1.23264
1.24178
1.25052
1.25895
1.26717
1.27537
1.28357
1.29165
1.29963
1.30731
1.31471
1.32178
1.32852
1.33497
1.34145
1.34806
1.35479
1.36153
1.3686
1.37688
1.38457
1.39308
1.09487
1.17974
1.24642
1.28592
1.23162
1.14833
1.04169
0.957705
0.946622
0.88511
0.788535
0.683378
0.582135
0.523954
0.477389
0.469702
0.459486
0.437744
0.400073
0.349127
0.289208
0.24839
0.204932
0.183272
0.153309
0.141087
0.123214
0.104982
0.0825579
0.0550914
0.075638
0.110998
0.19138
0.31017
0.459251
0.61685
0.76321
0.874159
0.951726
1.00788
1.04842
1.07274
1.08255
1.08786
1.09413
1.09437
1.09
1.0935
1.09403
1.09069
1.09048
1.08905
1.08704
1.09015
1.09369
1.09931
1.10512
1.11107
1.11653
1.12257
1.12966
1.13799
1.14714
1.15644
1.16595
1.17533
1.18432
1.19299
1.20159
1.21032
1.21922
1.22832
1.23763
1.24706
1.25645
1.26576
1.27485
1.28376
1.29264
1.3014
1.30992
1.31827
1.32649
1.33454
1.34243
1.35004
1.35742
1.36454
1.37163
1.37839
1.38514
1.39165
1.39822
1.40472
1.41129
1.41798
1.42494
1.43286
1.44104
1.44985
1.08939
1.18345
1.25404
1.31563
1.33879
1.31302
1.27822
1.25519
1.26578
1.23722
1.16486
1.07178
0.964242
0.880343
0.811954
0.78282
0.75274
0.713828
0.665019
0.611011
0.551472
0.503533
0.450345
0.415176
0.371058
0.346243
0.309152
0.297314
0.266968
0.25591
0.275771
0.34106
0.455913
0.62198
0.811087
0.949131
1.06706
1.15716
1.2276
1.27366
1.29369
1.29818
1.294
1.28095
1.26691
1.24472
1.21943
1.21139
1.20255
1.19013
1.18197
1.17222
1.15952
1.15843
1.16083
1.16361
1.16458
1.16531
1.1677
1.17189
1.17798
1.18456
1.1918
1.19904
1.20681
1.2152
1.22333
1.23128
1.23926
1.24742
1.2558
1.26438
1.27312
1.28197
1.29053
1.29908
1.30781
1.31669
1.32545
1.33407
1.34266
1.35101
1.35913
1.36692
1.37455
1.38191
1.38922
1.39644
1.40356
1.41036
1.41708
1.42351
1.42993
1.43623
1.44262
1.44917
1.45608
1.46387
1.47263
1.48194
1.06863
1.1713
1.24907
1.30849
1.36479
1.36851
1.36968
1.37569
1.39034
1.41262
1.42414
1.37748
1.31725
1.24996
1.18396
1.12403
1.09365
1.05347
1.00143
0.941342
0.873776
0.812263
0.746583
0.699434
0.644946
0.608742
0.558529
0.529778
0.482979
0.462029
0.491607
0.58746
0.740512
0.918869
1.07912
1.1951
1.29893
1.37564
1.43555
1.46941
1.48805
1.48829
1.47666
1.45704
1.42637
1.38228
1.3366
1.29186
1.24768
1.24223
1.23467
1.22512
1.21445
1.20493
1.19972
1.19394
1.19512
1.19725
1.19945
1.20211
1.20617
1.21033
1.21589
1.22249
1.22985
1.23736
1.24493
1.25271
1.26046
1.26806
1.27578
1.28373
1.29193
1.30044
1.30911
1.31768
1.32627
1.33486
1.34338
1.35174
1.36001
1.3681
1.37609
1.38391
1.3917
1.39919
1.40661
1.41372
1.42074
1.4275
1.43413
1.44061
1.44708
1.45353
1.46006
1.46675
1.47379
1.48152
1.49065
1.5003
1.05914
1.14819
1.23464
1.29699
1.35594
1.37813
1.40588
1.42206
1.45016
1.47993
1.51214
1.52808
1.50013
1.46663
1.42823
1.39541
1.38705
1.37505
1.3427
1.29335
1.23003
1.16398
1.09147
1.03161
0.967184
0.916314
0.854614
0.81044
0.74959
0.708292
0.743278
0.844484
0.986693
1.1424
1.26119
1.36973
1.45552
1.52004
1.56589
1.59321
1.61016
1.61045
1.60336
1.58927
1.56353
1.52772
1.48084
1.416
1.34991
1.28576
1.25072
1.25257
1.24882
1.24183
1.23037
1.22126
1.21459
1.21753
1.22002
1.22219
1.22449
1.2279
1.23303
1.23914
1.24624
1.25341
1.26005
1.26642
1.27296
1.28006
1.28794
1.29612
1.30435
1.3127
1.32101
1.32931
1.33764
1.34601
1.35436
1.36258
1.37069
1.37862
1.38644
1.39412
1.40176
1.40919
1.41656
1.42362
1.43063
1.4374
1.44408
1.45068
1.45727
1.46389
1.47056
1.47737
1.4845
1.49229
1.5016
1.51144
1.0574
1.13233
1.211
1.27971
1.33355
1.3693
1.40701
1.4287
1.46121
1.5028
1.54176
1.57957
1.59556
1.5825
1.5685
1.55385
1.54888
1.55076
1.55773
1.53731
1.50393
1.46222
1.41417
1.36498
1.31276
1.26045
1.20128
1.13915
1.066
0.974057
0.990769
1.05714
1.16424
1.26816
1.37667
1.46321
1.53869
1.60494
1.64378
1.66259
1.67383
1.67758
1.67792
1.67066
1.65412
1.63506
1.60135
1.55217
1.48991
1.40434
1.33613
1.25922
1.25984
1.25936
1.25662
1.24982
1.24145
1.23354
1.23458
1.23663
1.23917
1.24251
1.24721
1.25292
1.25922
1.26541
1.27119
1.27721
1.28351
1.29037
1.29807
1.30628
1.31478
1.32298
1.33079
1.33862
1.34657
1.35459
1.36259
1.37062
1.37871
1.38677
1.39477
1.40258
1.41026
1.41765
1.42489
1.43184
1.43871
1.44539
1.45202
1.45865
1.46535
1.47212
1.47896
1.48591
1.49311
1.50089
1.51014
1.5199
1.06307
1.12739
1.19531
1.26173
1.30475
1.34486
1.3893
1.41893
1.45389
1.49579
1.53991
1.58093
1.61884
1.63127
1.63158
1.63177
1.6329
1.63894
1.64946
1.65864
1.65285
1.62996
1.60287
1.57298
1.54112
1.50507
1.46575
1.40278
1.32513
1.22529
1.14537
1.189
1.25749
1.34251
1.42788
1.50812
1.57763
1.62413
1.65366
1.68034
1.70408
1.71067
1.7104
1.70841
1.70489
1.69941
1.68065
1.65565
1.61761
1.56089
1.48248
1.38654
1.30249
1.26056
1.26657
1.26974
1.26619
1.25974
1.25432
1.2529
1.25671
1.26022
1.26478
1.26923
1.27395
1.27909
1.28387
1.28926
1.29579
1.30281
1.3103
1.31816
1.32618
1.33395
1.34155
1.34917
1.35693
1.36477
1.37271
1.38059
1.3885
1.3964
1.40411
1.41164
1.41908
1.42637
1.43348
1.44027
1.44696
1.4536
1.46031
1.4671
1.4739
1.48079
1.48763
1.4945
1.5016
1.50928
1.51851
1.52827
1.07267
1.12758
1.18729
1.24687
1.2938
1.33669
1.36905
1.40167
1.43795
1.47844
1.52507
1.56829
1.60714
1.64299
1.65239
1.66415
1.67029
1.68069
1.69255
1.70724
1.71753
1.72144
1.70612
1.68807
1.66727
1.64019
1.60382
1.53474
1.42198
1.3114
1.21092
1.2503
1.30377
1.37287
1.43369
1.4878
1.53743
1.57779
1.61109
1.6407
1.66646
1.68699
1.70661
1.72502
1.72694
1.72383
1.72188
1.7184
1.70148
1.67147
1.62463
1.55838
1.45518
1.37556
1.28311
1.27598
1.28228
1.28599
1.28393
1.28032
1.28028
1.28121
1.28336
1.28722
1.29169
1.29602
1.30054
1.30521
1.31103
1.31788
1.32495
1.33229
1.33978
1.34725
1.35493
1.36261
1.37018
1.37773
1.38521
1.39271
1.40038
1.40824
1.4159
1.42342
1.43072
1.4377
1.44448
1.45103
1.45756
1.46413
1.47076
1.47745
1.48412
1.49075
1.49738
1.5041
1.51111
1.51879
1.52813
1.53812
1.08731
1.13451
1.18635
1.23672
1.28437
1.32947
1.35563
1.38495
1.41831
1.45712
1.50145
1.5478
1.58916
1.62801
1.65328
1.66954
1.68328
1.69466
1.71151
1.72731
1.74308
1.75719
1.76253
1.75185
1.7366
1.71171
1.66006
1.56328
1.40027
1.24124
1.22004
1.25272
1.30088
1.34972
1.401
1.4528
1.4968
1.53557
1.572
1.60209
1.6289
1.65405
1.67986
1.70006
1.71879
1.73241
1.74637
1.74405
1.74428
1.73735
1.72241
1.6866
1.63083
1.55189
1.44216
1.35657
1.27638
1.29103
1.30162
1.30614
1.30582
1.30376
1.30494
1.30673
1.3087
1.31189
1.31538
1.31948
1.32443
1.33061
1.33761
1.34503
1.35236
1.3597
1.36717
1.37472
1.38198
1.38898
1.39613
1.40358
1.41152
1.41938
1.42738
1.43487
1.44171
1.44811
1.4544
1.46064
1.46697
1.47337
1.47987
1.48648
1.49317
1.49995
1.50684
1.51384
1.52114
1.5291
1.53871
1.54898
1.10547
1.14623
1.19214
1.23765
1.28179
1.32381
1.35061
1.37882
1.40951
1.44168
1.47965
1.52181
1.56755
1.60351
1.63581
1.66092
1.67694
1.69191
1.70913
1.72778
1.74803
1.76594
1.78545
1.77722
1.7633
1.72751
1.64753
1.51196
1.34897
1.19345
1.21451
1.24447
1.28477
1.32713
1.37218
1.41454
1.45201
1.48823
1.52213
1.55209
1.58352
1.61205
1.64084
1.66179
1.68564
1.71112
1.73092
1.75171
1.7686
1.76761
1.77026
1.75918
1.73952
1.69675
1.6295
1.5288
1.42677
1.32061
1.31062
1.32379
1.33541
1.33534
1.33481
1.33237
1.33408
1.33676
1.3397
1.34309
1.34708
1.35222
1.3583
1.36513
1.37284
1.38013
1.38725
1.39399
1.40071
1.4074
1.41412
1.42107
1.42822
1.43538
1.44264
1.44946
1.45593
1.46211
1.46814
1.47413
1.48017
1.4863
1.49255
1.49894
1.50546
1.51213
1.51894
1.52593
1.53327
1.54136
1.55122
1.56187
1.12518
1.16183
1.20164
1.24372
1.28397
1.31882
1.35144
1.37631
1.40373
1.4327
1.46643
1.50374
1.54491
1.58483
1.61491
1.64584
1.662
1.6793
1.69779
1.71554
1.73907
1.75887
1.78206
1.77335
1.75104
1.6901
1.57359
1.39374
1.22859
1.18782
1.20371
1.22804
1.25916
1.29511
1.3328
1.37093
1.40873
1.44529
1.47903
1.51241
1.54442
1.57434
1.60083
1.6297
1.65858
1.68793
1.70661
1.73153
1.75289
1.77459
1.79363
1.79389
1.79548
1.78118
1.75356
1.70332
1.6276
1.51093
1.42517
1.3317
1.34035
1.35515
1.36796
1.36922
1.37002
1.3692
1.37052
1.37229
1.37621
1.38059
1.38537
1.39074
1.39687
1.40414
1.41118
1.41815
1.42424
1.43003
1.43588
1.44198
1.44849
1.45549
1.46246
1.46894
1.47513
1.48102
1.4868
1.49258
1.49838
1.50425
1.51026
1.51641
1.52276
1.52933
1.53603
1.54293
1.55022
1.55828
1.56808
1.57882
1.14775
1.18017
1.21573
1.2532
1.29078
1.3231
1.3545
1.37662
1.4012
1.42825
1.45878
1.4939
1.52879
1.56902
1.60023
1.62693
1.65604
1.66809
1.68288
1.70183
1.72572
1.74233
1.76053
1.74514
1.6989
1.59994
1.42289
1.27785
1.16964
1.17875
1.19271
1.21265
1.23804
1.26784
1.30133
1.33679
1.37268
1.40805
1.44312
1.47716
1.51007
1.53995
1.57108
1.60138
1.63417
1.65613
1.6827
1.70889
1.73039
1.75197
1.7748
1.7962
1.82046
1.82087
1.82169
1.80897
1.77146
1.71128
1.62368
1.50846
1.40455
1.3678
1.38249
1.39909
1.40708
1.40315
1.39901
1.39897
1.40062
1.40458
1.41
1.41584
1.42231
1.42935
1.43665
1.44388
1.45058
1.45581
1.46084
1.46602
1.47142
1.47707
1.4832
1.4892
1.49507
1.50065
1.50606
1.51149
1.51702
1.52269
1.52854
1.53458
1.54085
1.54736
1.55409
1.56107
1.56846
1.57667
1.58684
1.59778
1.17402
1.20145
1.23329
1.26673
1.30083
1.33008
1.35901
1.38108
1.40272
1.42682
1.45406
1.48549
1.51888
1.5538
1.58591
1.61529
1.64613
1.66257
1.67542
1.69211
1.71175
1.73356
1.72468
1.69265
1.61072
1.44159
1.31297
1.17196
1.17301
1.17931
1.19018
1.20605
1.22661
1.2518
1.28068
1.31278
1.34638
1.38076
1.41516
1.44924
1.48132
1.51375
1.54631
1.58027
1.60513
1.63404
1.66283
1.68532
1.70792
1.73348
1.76113
1.79141
1.81748
1.83786
1.85879
1.86052
1.84946
1.83036
1.78552
1.71695
1.59969
1.51198
1.40493
1.41305
1.42243
1.43382
1.44283
1.43954
1.43778
1.43964
1.44315
1.44803
1.45431
1.46037
1.46698
1.47292
1.47886
1.4846
1.4891
1.49301
1.49682
1.50105
1.50582
1.51124
1.51673
1.52242
1.52797
1.53344
1.53894
1.54448
1.55018
1.5561
1.56227
1.56868
1.57533
1.58224
1.58957
1.5977
1.60793
1.6187
1.19998
1.22314
1.25234
1.28231
1.31463
1.34167
1.3677
1.38989
1.40807
1.42917
1.45353
1.48102
1.51143
1.5407
1.57292
1.60531
1.63515
1.65783
1.67247
1.689
1.70602
1.70149
1.67806
1.61001
1.47447
1.32729
1.18762
1.17146
1.1764
1.18321
1.19276
1.20554
1.22241
1.24345
1.26869
1.29715
1.32798
1.36023
1.39319
1.42635
1.45935
1.49379
1.52934
1.55552
1.58615
1.61658
1.64052
1.66638
1.69435
1.72429
1.75357
1.77938
1.80404
1.83338
1.85678
1.8824
1.88609
1.88988
1.8816
1.85405
1.80082
1.72376
1.60746
1.52252
1.43184
1.44549
1.46495
1.48002
1.48017
1.47914
1.47959
1.48155
1.48435
1.49042
1.49613
1.50238
1.50638
1.51016
1.51444
1.51882
1.52293
1.52742
1.53219
1.53717
1.54247
1.54794
1.55343
1.55884
1.56419
1.56961
1.57517
1.58093
1.58693
1.59321
1.59976
1.60661
1.6139
1.62203
1.63236
1.64321
1.22999
1.24846
1.27325
1.29957
1.33028
1.35562
1.37973
1.40268
1.41718
1.43485
1.45594
1.48069
1.50778
1.53372
1.56278
1.5943
1.6256
1.64815
1.66915
1.68795
1.68674
1.66499
1.60484
1.49285
1.33323
1.19271
1.16955
1.17751
1.18399
1.19171
1.20068
1.21157
1.22553
1.24323
1.26471
1.28983
1.31749
1.34731
1.3785
1.4109
1.44535
1.4801
1.50822
1.54069
1.57303
1.59841
1.62718
1.65594
1.68532
1.71491
1.74386
1.77171
1.79924
1.82632
1.85073
1.87679
1.89995
1.92526
1.92457
1.92513
1.90983
1.87297
1.814
1.72354
1.60828
1.49713
1.48139
1.49177
1.50657
1.52231
1.51996
1.51851
1.51985
1.52188
1.52733
1.53364
1.53986
1.54271
1.54529
1.54827
1.55096
1.55461
1.55964
1.5649
1.57023
1.57563
1.5809
1.58621
1.59153
1.59692
1.60235
1.60791
1.61371
1.61985
1.6264
1.63323
1.64054
1.64871
1.6591
1.67026
1.25073
1.26831
1.29166
1.31769
1.34717
1.3719
1.39538
1.41924
1.43058
1.44433
1.46205
1.48382
1.5078
1.53072
1.55713
1.58386
1.61529
1.64374
1.67273
1.67165
1.65429
1.60231
1.49941
1.33908
1.19034
1.15896
1.17234
1.18211
1.1932
1.20096
1.20955
1.21964
1.23182
1.24711
1.26558
1.28745
1.31254
1.3405
1.37067
1.40331
1.43629
1.46599
1.49834
1.53139
1.55982
1.58983
1.62057
1.65145
1.6807
1.70897
1.73828
1.76747
1.79723
1.82254
1.84909
1.8733
1.89918
1.9219
1.94161
1.9626
1.96116
1.95406
1.93659
1.89785
1.8254
1.70259
1.61322
1.51032
1.52025
1.53733
1.54782
1.55866
1.5564
1.55665
1.55769
1.5614
1.56632
1.57074
1.57441
1.57638
1.57896
1.58217
1.58664
1.59257
1.59842
1.60415
1.60914
1.6141
1.61897
1.6241
1.62921
1.63461
1.64035
1.64649
1.65304
1.6599
1.66734
1.6757
1.68637
1.69776
1.28532
1.2945
1.3127
1.33528
1.35877
1.3873
1.41051
1.43745
1.44805
1.458
1.47234
1.49024
1.51281
1.53109
1.55319
1.57768
1.60899
1.63884
1.66059
1.64423
1.59972
1.50605
1.34552
1.19212
1.14202
1.15963
1.174
1.18998
1.20044
1.21072
1.22134
1.23259
1.24511
1.25934
1.27617
1.29582
1.31858
1.34376
1.37143
1.40048
1.43051
1.46264
1.49601
1.52537
1.55699
1.59011
1.6183
1.64706
1.6769
1.70541
1.73449
1.76395
1.7934
1.82018
1.84635
1.8699
1.89392
1.91799
1.94399
1.96808
1.98206
1.99547
2.0007
1.99846
1.97385
1.91612
1.82824
1.70376
1.59292
1.5467
1.55139
1.57012
1.58448
1.59463
1.59419
1.59515
1.59646
1.59876
1.60195
1.60475
1.60716
1.60974
1.61313
1.61792
1.62334
1.62868
1.63421
1.63908
1.64396
1.64911
1.65442
1.6601
1.66624
1.6729
1.67991
1.68718
1.69497
1.70337
1.71415
1.72551
1.32695
1.31362
1.3306
1.35152
1.37306
1.39983
1.42381
1.44635
1.47086
1.47578
1.48521
1.5004
1.52013
1.53931
1.55582
1.58249
1.60727
1.63558
1.62805
1.59423
1.51176
1.35317
1.21326
1.12544
1.14555
1.16313
1.18237
1.19715
1.21152
1.22552
1.23793
1.25045
1.26343
1.27737
1.29289
1.31045
1.3304
1.3529
1.37779
1.40509
1.43499
1.46616
1.49629
1.52815
1.55966
1.59177
1.61961
1.64817
1.67695
1.70565
1.73468
1.76315
1.79201
1.82056
1.8453
1.87096
1.89423
1.91568
1.93763
1.95887
1.98402
2.00919
2.03246
2.04611
2.05123
2.02618
1.97812
1.90911
1.79443
1.69254
1.57869
1.58514
1.5955
1.60979
1.62617
1.62919
1.62877
1.62784
1.6278
1.62722
1.63019
1.63394
1.63858
1.64334
1.6481
1.65323
1.65816
1.6631
1.66827
1.6738
1.67971
1.68605
1.69286
1.70024
1.7077
1.71524
1.72318
1.73167
1.74238
1.75344
1.38836
1.35139
1.34855
1.36433
1.38612
1.40978
1.43543
1.45866
1.48599
1.49441
1.50134
1.51298
1.53058
1.55277
1.56808
1.59174
1.60941
1.61579
1.58511
1.51094
1.35719
1.23545
1.1129
1.13257
1.15142
1.17194
1.18891
1.20617
1.22357
1.23994
1.25536
1.26972
1.28418
1.29907
1.31477
1.33174
1.3504
1.37125
1.39414
1.41938
1.44633
1.47465
1.5043
1.53448
1.5649
1.5951
1.62493
1.65289
1.68098
1.70895
1.73702
1.76457
1.79244
1.8196
1.84559
1.86912
1.89289
1.91241
1.93243
1.95394
1.97781
2.00764
2.03502
2.05787
2.07857
2.07648
2.06106
2.04042
1.98462
1.90537
1.78352
1.69449
1.6045
1.61339
1.6324
1.64421
1.65901
1.65742
1.65569
1.65486
1.65455
1.65686
1.66274
1.66817
1.6745
1.67897
1.68364
1.68838
1.69366
1.69953
1.70589
1.71282
1.71957
1.72661
1.7339
1.74132
1.74904
1.75748
1.76839
1.78002
1.54064
1.41418
1.38247
1.39064
1.40853
1.42647
1.45155
1.47126
1.49198
1.51401
1.5185
1.52824
1.54461
1.56683
1.58429
1.6009
1.60404
1.57828
1.51228
1.37481
1.24111
1.10968
1.12651
1.14556
1.16479
1.18363
1.20298
1.22274
1.24249
1.26167
1.27973
1.29604
1.31164
1.32733
1.3432
1.35971
1.37722
1.39616
1.41671
1.43897
1.46298
1.48859
1.51553
1.54326
1.57157
1.59998
1.62828
1.65636
1.68372
1.71125
1.73877
1.76598
1.79319
1.8192
1.84498
1.86749
1.88916
1.91037
1.93168
1.95331
1.97583
2.00073
2.03051
2.0577
2.08554
2.09786
2.09758
2.09511
2.08522
2.04628
1.98264
1.89249
1.77036
1.65948
1.64502
1.64917
1.66606
1.67855
1.68833
1.68627
1.68414
1.68234
1.68458
1.69116
1.69713
1.70381
1.70919
1.71434
1.71936
1.72521
1.73173
1.73812
1.74504
1.75227
1.75956
1.76678
1.77424
1.78253
1.79341
1.80507
1.89018
1.46493
1.42685
1.40842
1.42268
1.43825
1.45825
1.48296
1.50303
1.52684
1.53303
1.54331
1.56154
1.58088
1.60076
1.59726
1.57186
1.50995
1.38925
1.24474
1.11379
1.12585
1.14493
1.16262
1.18101
1.20031
1.22056
1.24145
1.26244
1.2827
1.30214
1.32015
1.33756
1.35377
1.3701
1.38671
1.40371
1.42146
1.44025
1.46041
1.48199
1.50492
1.52914
1.5544
1.58033
1.60685
1.63358
1.66036
1.68723
1.71448
1.74173
1.7692
1.79583
1.82223
1.84554