/*--------------------------------*- C++ -*----------------------------------*\
| =========                 |                                                 |
| \\      /  F ield         | OpenFOAM: The Open Source CFD Toolbox           |
|  \\    /   O peration     | Version:  v2106                                 |
|   \\  /    A nd           | Website:  www.openfoam.com                      |
|    \\/     M anipulation  |                                                 |
\*---------------------------------------------------------------------------*/
FoamFile
{
    version     2.0;
    format      ascii;
    arch        "LSB;label=32;scalar=64";
    class       volScalarField;
    location    "17";
    object      p;
}
// * * * * * * * * * * * * * * * * * * * * * * * * * * * * * * * * * * * * * //

dimensions      [1 -1 -2 0 0 0 0];

internalField   nonuniform List<scalar> 
5250
(
1
1
1
1
1
1
1
1
1.00001
1.00007
1.00063
1.00562
1.0489
1.39951
2.99635
8.5852
13.3998
10.8265
11.5023
11.7146
11.805
11.9619
12.0641
12.1449
12.1895
1
1
1
1
1
1
1
1
1.00001
1.00007
1.00061
1.00546
1.04731
1.38995
2.9587
8.46808
13.4291
10.8041
11.4913
11.7021
11.7937
11.9508
12.0525
12.1313
12.1763
1
1
1
1
1
1
1
1
1.00001
1.00007
1.00056
1.00515
1.04387
1.36878
2.87431
8.18345
13.4713
10.7567
11.4504
11.6647
11.7461
11.8975
11.9965
12.0723
12.1105
1
1
1
1
1
1
1
1
1.00001
1.00006
1.00051
1.00483
1.03919
1.3386
2.75019
7.81038
13.477
10.7093
11.3838
11.6021
11.6787
11.8246
11.9195
11.9806
12.02
1
1
1
1
1
1
1
1
1
1.00005
1.00043
1.0043
1.03358
1.30137
2.59476
7.32874
13.4163
10.6632
11.2913
11.5202
11.5817
11.7143
11.7947
11.8636
11.8952
1
1
1
1
1
1
1
1
1
1.00004
1.00034
1.00316
1.02716
1.25961
2.41565
6.77504
13.3022
10.6432
11.192
11.4169
11.4775
11.5897
11.6756
11.6799
11.7123
1
1
1
1
1
1
1
1
1
1.00003
1.00026
1.0025
1.0217
1.21842
2.23415
6.15273
12.9435
10.6597
11.044
11.2871
11.3326
11.4053
11.4412
11.4778
11.4702
1
1
1
1
1
1
1
1
1
1.00003
1.00019
1.00237
1.01785
1.18352
2.07865
5.55194
12.3169
10.6447
10.8784
11.0838
11.1456
11.2163
11.2157
11.1768
11.091
1
1
1
1
1
1
1
1
1
1.00003
1.00014
1.00191
1.01396
1.14756
1.90994
4.93655
11.506
10.6207
10.7151
10.8741
10.9542
10.8675
10.8327
10.7223
10.519
1
1
1
1
1
1
1
1
1
1.00002
1.0001
1.00163
1.01046
1.122
1.7538
4.35817
10.5514
10.6259
10.5554
10.5408
10.6444
10.5987
10.3597
10.3802
9.4659
1
1
1
1
1
1
1
1
1
1.00001
1.00014
1.00114
1.01068
1.08696
1.59318
3.76404
9.4417
10.6734
10.3608
10.267
10.2694
10.1988
9.71209
9.33416
6.88226
1
1
1
1
1
1
1
1
1
1.00001
1.00008
1.00067
1.0065
1.05038
1.44303
3.19853
8.26229
10.7519
10.0009
9.97274
9.88159
9.77759
9.10646
8.45011
6.50705
1
1
1
1
1
1
1
1
1
1.00001
1.00003
1.00043
1.00275
1.03197
1.29782
2.56846
6.95293
10.775
9.70855
9.71539
9.59436
9.39169
8.78023
7.98848
6.65352
1
1
1
1
1
1
1
1
1
1
1.00004
1.00023
1.00268
1.02037
1.20405
2.16915
5.73724
10.4042
9.61708
9.49407
9.34906
9.086
8.5258
7.80884
6.66382
1
1
1
1
1
1
1
1
1
1
1.00003
1.00012
1.00191
1.01225
1.13974
1.82574
4.66149
9.3349
9.63404
9.37553
9.10172
8.77911
8.25726
7.62058
6.67503
1
1
1
1
1
1
1
1
1
1
1.00001
1.00011
1.00105
1.00875
1.08032
1.55227
3.65045
7.96749
9.5417
9.13349
8.82315
8.49951
8.07074
7.4645
6.65263
1
1
1
1
1
1
1
1
1
1
1
1.00007
1.00029
1.00466
1.03088
1.32518
2.71992
6.52156
9.41488
8.89507
8.61977
8.32792
7.9175
7.36108
6.62969
1
1
1
1
1
1
1
1
1
1
1
1.00004
1.00021
1.00277
1.01909
1.19603
2.09879
5.12253
8.86117
8.88336
8.56062
8.2278
7.81377
7.2867
6.62864
1
1
1
1
1
1
1
1
1
1
1
1.00002
1.00015
1.00139
1.01144
1.10253
1.68033
3.96633
7.72747
8.87318
8.47561
8.06715
7.65873
7.18629
6.60817
1
1
1
1
1
1
1
1
1
1
1
1
1.0001
1.00035
1.00623
1.03807
1.41184
2.90072
6.25789
8.6417
8.24302
7.8922
7.53033
7.11046
6.59517
1
1
1
1
1
1
1
1
1
1
1
1
1.00004
1.00031
1.00267
1.02203
1.18081
2.06588
4.7399
7.9271
8.16071
7.84819
7.4784
7.07086
6.59381
1
1
1
1
1
1
1
1
1
1
1
1
1.00003
1.00024
1.00031
1.01204
1.0496
1.66621
3.54541
6.71963
8.11768
7.7923
7.43599
7.04754
6.60065
1
1
1
1
1
1
1
1
1
1
1
1
1.00001
1.00007
1.0005
1.00425
1.03356
1.26464
2.42192
5.23178
7.70465
7.66619
7.3877
7.0237
6.60182
1
1
1
1
1
1
1
1
1
1
1
1
1
1.00006
1.00034
1.00035
1.01578
1.0569
1.81358
3.86198
6.71895
7.70759
7.3984
7.04582
6.64009
1
1
1
1
1
1
1
1
1
1
1
1
1
1.00001
1.0001
1.00067
1.00575
1.04318
1.34377
2.70174
5.363
7.44524
7.30856
7.0168
6.64791
1
1
1
1
1
1
1
1
1
1
1
1
1
1.00001
1.00006
1.00037
1.00045
1.01721
1.06589
1.89134
3.97729
6.55385
7.32887
7.03157
6.68393
1
1
1
1
1
1
1
1
1
1
1
1
1
1
1.00001
1.00011
1.00077
1.00654
1.04696
1.37736
2.75855
5.22944
7.07443
6.93451
6.6662
1
1
1
1
1
1
1
1
1
1
1
1
1
1
1
1.00008
1.0004
1.00028
1.0177
1.06612
1.8761
3.88324
6.26019
6.98702
6.69055
1
1
1
1
1
1
1
1
1
1
1
1
1
1
1
1.00001
1.00011
1.00075
1.00642
1.04362
1.36678
2.65853
4.94166
6.69105
6.64743
1
1
1
1
1
1
1
1
1
1
1
1
1
1
1
1
1.00004
1.0002
0.999416
1.01538
1.07248
1.80389
3.5873
5.75978
6.62406
1
1
1
1
1
1
1
1
1
1
1
1
1
1
1
1
1
1.00009
1.00054
1.00548
1.03717
1.32698
2.4568
4.50284
6.21402
1
1
1
1
1
1
1
1
1
1
1
1
1
1
1
1
1
0.999991
0.999881
0.99842
1.01094
1.05729
1.67425
3.17574
5.26383
1
1
1
1
1
1
1
1
1
1
1
1
1
1
1
1
1
1.00001
1.00007
1.00049
1.00447
1.03053
1.25741
2.31925
4.08835
1
1
1
1
1
1
1
1
1
1
1
1
1
1
1
1
1
1
1.00002
1.0001
1.00035
1.00695
1.05534
1.44197
2.66635
1
1
1
1
1
1
1
1
1
1
1
1
1
1
1
1
1
1
1
1.00006
1.00033
1.00384
1.02381
1.00899
1.70135
1
1
1
1
1
1
1
1
1
1
1
1
1
1
1
1
1
1
1
1.00001
1.00009
1.00056
1.00546
1.03397
1.29193
1
1
1
1
1
1
1
1
1
1
1
1
1
1
1
1
1
1
1
1
1.00003
1.00023
1.00156
1.00783
1.05064
1
1
1
1
1
1
1
1
1
1
1
1
1
1
1
1
1
1
1
1
1.00001
1.00006
1.00049
1.00279
1.01931
1
1
1
1
1
1
1
1
1
1
1
1
1
1
1
1
1
1
1
1
1
1.00001
1.00011
1.00065
1.00481
1
1
1
1
1
1
1
1
1
1
1
1
1
1
1
1
1
1
1
1
1
1
0.999996
1.00018
1.00136
1
1
1
1
1
1
1
1
1
1
1
1
1
1
1
1
1
1
1
1
1
1
1.00002
1.00017
1.00107
1
1
1
1
1
1
1
1
1
1
1
1
1
1
1
1
1
1
1
1
1
1
1
1.00002
1.00011
1
1
1
1
1
1
1
1
1
1
1
1
1
1
1
1
1
1
1
1
1
1
1
1.00001
1.00004
1
1
1
1
1
1
1
1
1
1
1
1
1
1
1
1
1
1
1
1
1
1
1
1
1
1
1
1
1
1
1
1
1
1
1
1
1
1
1
1
1
1
1
1
1
1
1
1
1
1
1
1
1
1
1
1
1
1
1
1
1
1
1
1
1
1
1
1
1
1
1
1
1
1
1
1
1
1
1
1
1
1
1
1
1
1
1
1
1
1
1
1
1
1
1
1
1
1
1
1
1
1
1
1
1
1
1
1
1
1
1
1
1
1
1
1
1
1
1
1
1
1
1
1
1
1
1
1
1
1
1
1
1
1
1
1
1
1
1
1
1
1
1
1
1
1
1
1
1
1
1
1
1
1
1
1
1
1
1
1
1
1
1
1
1
1
1
1
1
1
1
1
1
1
1
2.71418
3.06705
3.8254
3.27576
3.50925
3.50928
3.30072
2.85571
2.5601
2.4631
2.46487
2.47946
2.48094
2.45297
2.34444
2.19142
2.09745
2.06829
2.07517
2.08374
2.0923
2.0949
2.09066
2.08465
2.07146
2.05645
2.04222
2.03613
2.03217
2.03712
2.0458
2.07376
2.11305
2.18064
2.29724
2.43585
2.58245
2.74529
2.9541
3.13959
3.30434
3.48505
3.68633
3.88805
4.1076
4.27459
4.3925
4.52231
4.63438
4.70859
4.79101
4.84194
4.86658
4.88273
4.88651
4.88606
4.87365
4.85048
4.8209
4.78757
4.74972
4.70715
4.66137
4.61295
4.56327
4.51224
4.46047
4.40869
4.35722
4.30601
4.2551
4.20451
4.15427
4.10449
4.05523
4.0065
3.95848
3.91111
3.86449
3.81875
3.77404
3.73037
3.68794
3.64643
3.60597
3.56627
3.5275
3.48971
3.45314
3.41795
3.38437
3.3519
3.32076
3.2895
3.25879
3.22726
3.19573
3.1618
3.12793
3.10823
4.10398
3.96401
3.53205
3.27802
3.6433
3.643
3.4978
2.89758
2.45219
2.34768
2.39684
2.466
2.46532
2.4036
2.28855
2.17717
2.10806
2.07681
2.08123
2.08891
2.09533
2.09977
2.09541
2.09215
2.08121
2.0673
2.04811
2.03598
2.02757
2.03415
2.0465
2.07815
2.12279
2.17834
2.28221
2.40458
2.53384
2.69783
2.91958
3.13879
3.33446
3.50773
3.70244
3.88852
4.09116
4.24452
4.35244
4.49264
4.61483
4.69273
4.77628
4.83017
4.85725
4.87413
4.87809
4.87829
4.86681
4.84329
4.81208
4.7791
4.74233
4.70022
4.65486
4.60703
4.55794
4.5075
4.45619
4.40478
4.35359
4.30279
4.25209
4.20161
4.1515
4.10193
4.05281
4.00431
3.95638
3.90895
3.86234
3.8166
3.77198
3.72851
3.68628
3.645
3.60466
3.56506
3.52631
3.48854
3.452
3.41689
3.38342
3.35124
3.32021
3.28924
3.25845
3.22724
3.19533
3.16105
3.12515
3.10427
4.95648
4.31433
3.91806
3.57377
3.58227
3.51617
3.16388
2.6154
2.43165
2.42269
2.469
2.49802
2.49093
2.46617
2.40398
2.24485
2.08623
2.04197
2.04061
2.07309
2.0882
2.09625
2.08781
2.08014
2.06433
2.05176
2.03554
2.03929
2.0307
2.03864
2.04128
2.06541
2.10356
2.15983
2.27783
2.42572
2.57817
2.69767
2.90107
3.09091
3.24737
3.4339
3.64038
3.843
4.06576
4.23703
4.34633
4.45998
4.57876
4.65803
4.73555
4.79159
4.8255
4.84209
4.84372
4.84603
4.83766
4.82001
4.79286
4.76302
4.72866
4.68812
4.64318
4.5954
4.54641
4.49648
4.44617
4.39635
4.34679
4.29725
4.2476
4.19779
4.14799
4.09827
4.04896
4.00028
3.95228
3.90493
3.85837
3.81285
3.76838
3.72516
3.68325
3.64227
3.60225
3.56293
3.52443
3.48685
3.45051
3.41565
3.38239
3.35038
3.31942
3.28868
3.25785
3.22668
3.19447
3.15968
3.12185
3.09918
5.38335
4.48726
4.00455
3.6491
3.54972
3.50128
3.23373
2.83442
2.57073
2.4424
2.42799
2.47018
2.46894
2.40241
2.26238
2.11602
2.0715
2.06521
2.07619
2.09774
2.09691
2.1047
2.09725
2.09537
2.08199
2.0788
2.04775
2.03841
2.01705
2.02683
2.03451
2.06566
2.1134
2.14607
2.24284
2.36371
2.47666
2.63983
2.83633
3.06202
3.23044
3.40161
3.59257
3.77122
3.95464
4.11976
4.26665
4.39128
4.50175
4.61149
4.67202
4.73798
4.78438
4.80527
4.81208
4.81532
4.80589
4.79117
4.76612
4.73745
4.7058
4.66831
4.62503
4.57848
4.52978
4.48075
4.43233
4.3843
4.3364
4.28843
4.24006
4.191
4.14133
4.09165
4.04263
3.99427
3.94639
3.89902
3.8525
3.80713
3.76308
3.72042
3.67902
3.63855
3.59892
3.56
3.52189
3.48468
3.44868
3.41417
3.38116
3.34933
3.31824
3.28765
3.25692
3.22583
3.19351
3.15818
3.11859
3.09398
5.5482
4.75069
4.13448
3.78619
3.63669
3.5215
3.29685
2.88814
2.52528
2.41896
2.43653
2.4831
2.46842
2.41587
2.33754
2.21984
2.12884
2.07357
2.05662
2.07703
2.0884
2.09703
2.08781
2.08004
2.06136
2.04978
2.02661
2.03633
2.02762
2.03619
2.03552
2.05086
2.07996
2.13479
2.22425
2.34398
2.46695
2.59022
2.73012
2.9327
3.07976
3.28393
3.49463
3.67697
3.85509
4.01021
4.16284
4.27419
4.4002
4.52487
4.59619
4.67257
4.72256
4.73484
4.75262
4.7594
4.75135
4.74451
4.73381
4.71197
4.68164
4.64529
4.60256
4.55541
4.50792
4.46114
4.41546
4.37009
4.32474
4.27858
4.23119
4.18287
4.13399
4.08487
4.03591
3.98744
3.93964
3.89265
3.84654
3.80157
3.75789
3.71559
3.67458
3.63447
3.59518
3.55669
3.51902
3.4823
3.4468
3.41271
3.37988
3.34806
3.31678
3.28587
3.25482
3.22348
3.19111
3.15559
3.11508
3.08898
5.68797
4.95173
4.36196
3.95833
3.73692
3.62485
3.40362
3.03875
2.7062
2.52867
2.49069
2.49898
2.48085
2.41451
2.30511
2.17525
2.09736
2.06737
2.06979
2.09195
2.09721
2.10318
2.09535
2.09173
2.07632
2.072
2.04651
2.04261
2.02077
2.03142
2.03929
2.06432
2.09584
2.12744
2.1874
2.25047
2.31821
2.40295
2.5209
2.66417
2.82856
3.04635
3.26197
3.47463
3.68303
3.87918
4.04998
4.17251
4.28438
4.35693
4.46634
4.57668
4.65729
4.68113
4.68959
4.68899
4.68918
4.69604
4.69367
4.67909
4.64802
4.60845
4.57033
4.5287
4.4846
4.43981
4.39575
4.35303
4.31038
4.26668
4.22066
4.17224
4.12244
4.07316
4.02504
3.97774
3.93106
3.885
3.83968
3.79532
3.75232
3.71067
3.67001
3.63019
3.59119
3.55313
3.51602
3.47991
3.44498
3.41128
3.37856
3.34657
3.31496
3.28366
3.25234
3.22083
3.18843
3.15285
3.11165
3.0844
5.79062
5.0827
4.52612
4.13045
3.84474
3.73377
3.53353
3.23508
2.93745
2.6539
2.50834
2.48085
2.46463
2.4285
2.36456
2.26648
2.16024
2.09779
2.07128
2.07537
2.08352
2.09314
2.08645
2.0807
2.0666
2.0604
2.03845
2.04901
2.03535
2.06097
2.08146
2.10725
2.1262
2.16278
2.17671
2.19193
2.22895
2.27447
2.34369
2.41605
2.53173
2.67571
2.83085
3.02703
3.2451
3.49989
3.7997
4.07878
4.22296
4.27347
4.34504
4.42079
4.51441
4.585
4.6279
4.6508
4.64585
4.64178
4.63254
4.62003
4.60847
4.57838
4.54085
4.5014
4.45988
4.41957
4.37849
4.33703
4.29439
4.25038
4.20472
4.15818
4.1109
4.06329
4.01615
3.9696
3.92364
3.87838
3.83385
3.79025
3.74774
3.70632
3.66576
3.62601
3.58721
3.54947
3.51288
3.47732
3.44273
3.40915
3.37629
3.34396
3.31196
3.28023
3.24859
3.21681
3.18422
3.14853
3.10691
3.07896
5.88173
5.22034
4.67784
4.27172
3.99058
3.82237
3.6537
3.39261
3.11204
2.84269
2.62926
2.53325
2.49942
2.47567
2.42933
2.32269
2.20036
2.10561
2.06368
2.06366
2.08331
2.10503
2.10312
2.09359
2.07513
2.06934
2.05848
2.06856
2.08532
2.11889
2.19807
2.26346
2.27791
2.28431
2.25325
2.21593
2.1964
2.20572
2.23475
2.26991
2.32558
2.4044
2.49661
2.62724
2.77225
2.96846
3.24686
3.57534
3.94083
4.23685
4.35058
4.34372
4.36176
4.42582
4.51233
4.57642
4.60728
4.58935
4.57923
4.56447
4.55812
4.54338
4.50971
4.47163
4.43318
4.39465
4.35749
4.3195
4.2786
4.23461
4.1876
4.13967
4.09279
4.04711
4.00213
3.95757
3.91351
3.86997
3.827
3.78451
3.74254
3.70133
3.66095
3.6215
3.58314
3.54593
3.50988
3.47482
3.44056
3.40705
3.37403
3.34137
3.309
3.27689
3.2449
3.2128
3.18003
3.14427
3.10239
3.07399
5.9494
5.33531
4.82471
4.4067
4.1465
3.92764
3.77026
3.53531
3.28179
3.01962
2.79097
2.6287
2.54957
2.51382
2.4668
2.38919
2.28888
2.18177
2.10654
2.0747
2.0751
2.08432
2.09707
2.09546
2.09292
2.0819
2.09234
2.09868
2.18627
2.27363
2.47616
2.56475
2.57751
2.52654
2.41597
2.32746
2.26497
2.22805
2.21986
2.22307
2.24436
2.27381
2.31791
2.3754
2.43352
2.55431
2.73294
2.94978
3.26371
3.6898
4.12707
4.35695
4.36631
4.35863
4.38225
4.42802
4.50326
4.53442
4.53752
4.52192
4.50407
4.49497
4.47481
4.44082
4.40644
4.36995
4.3307
4.29164
4.25316
4.2128
4.16901
4.12225
4.0762
4.03256
3.98963
3.9468
3.90414
3.86187
3.81996
3.77836
3.73705
3.69614
3.65592
3.61672
3.57879
3.54213
3.50653
3.47173
3.43746
3.40372
3.37038
3.33747
3.30486
3.27249
3.24018
3.20774
3.17465
3.13862
3.09643
3.06758
6.01111
5.42671
4.94696
4.54524
4.28379
4.02771
3.8654
3.65099
3.42061
3.16963
2.93404
2.73621
2.62023
2.55154
2.49617
2.44695
2.35933
2.25848
2.16556
2.10352
2.08051
2.08265
2.09313
2.09507
2.10263
2.09231
2.12323
2.15488
2.35425
2.65294
2.99859
3.04211
3.00669
2.83656
2.65494
2.50836
2.40945
2.34289
2.29729
2.26506
2.24913
2.24738
2.25029
2.26126
2.2809
2.3392
2.40522
2.50848
2.70269
2.99065
3.3627
3.86884
4.27353
4.41132
4.36868
4.34326
4.36671
4.42068
4.45843
4.4801
4.45789
4.4385
4.42738
4.40272
4.37465
4.34554
4.31239
4.27232
4.22992
4.1876
4.14546
4.10247
4.05918
4.01675
3.97497
3.93396
3.89312
3.85234
3.81172
3.77096
3.72993
3.68943
3.65
3.61176
3.57469
3.5387
3.5035
3.4689
3.43467
3.40083
3.36731
3.33402
3.30094
3.26813
3.23543
3.20263
3.16918
3.13286
3.09039
3.06123
6.06332
5.52685
5.05203
4.67181
4.37692
4.12015
3.95262
3.76274
3.54137
3.30502
3.07424
2.8655
2.70796
2.60708
2.54689
2.49094
2.41681
2.33639
2.24935
2.17072
2.11642
2.09333
2.09439
2.09778
2.1075
2.12499
2.18084
2.30843
2.69374
3.25
3.59755
3.57612
3.43431
3.19021
2.97547
2.81001
2.67468
2.56619
2.4785
2.40165
2.33712
2.28862
2.25004
2.23782
2.23644
2.24357
2.25144
2.29477
2.37717
2.49827
2.70459
3.05045
3.50143
4.0476
4.3584
4.40994
4.35167
4.32844
4.34114
4.38728
4.39261
4.38874
4.3821
4.36197
4.32949
4.30267
4.27849
4.24917
4.20887
4.16545
4.12361
4.08271
4.04202
4.0009
3.9599
3.9196
3.87991
3.84079
3.80159
3.76188
3.72144
3.68131
3.64252
3.6054
3.56948
3.53427
3.49947
3.46503
3.43078
3.39677
3.36294
3.32932
3.29598
3.26288
3.22986
3.19676
3.16299
3.12623
3.08306
3.05328
6.11053
5.61318
5.15861
4.77272
4.46091
4.2109
4.03924
3.85774
3.64149
3.42499
3.19997
2.98257
2.80469
2.68182
2.59912
2.53279
2.47243
2.40361
2.31601
2.23191
2.16564
2.1198
2.10432
2.10795
2.12223
2.16964
2.28321
2.60826
3.26258
3.9838
4.10422
3.98785
3.74242
3.50144
3.30259
3.12469
2.96156
2.81861
2.69527
2.59368
2.50799
2.43029
2.35963
2.29635
2.25652
2.23196
2.21822
2.2213
2.23403
2.26322
2.35397
2.50567
2.76179
3.15297
3.68186
4.21702
4.44205
4.37499
4.29228
4.26131
4.29926
4.32403
4.32413
4.3184
4.2988
4.27569
4.24552
4.21903
4.18832
4.14932
4.10616
4.06434
4.02412
3.98487
3.9449
3.90492
3.866
3.82801
3.79034
3.75234
3.71376
3.67445
3.63607
3.59976
3.56465
3.53001
3.49549
3.4611
3.42678
3.39262
3.35857
3.3247
3.29107
3.25761
3.22412
3.19042
3.15593
3.11846
3.07439
3.04387
6.14062
5.67667
5.24461
4.86181
4.5443
4.29858
4.11145
3.92605
3.73432
3.53141
3.31729
3.10357
2.90679
2.7668
2.66242
2.58232
2.52616
2.45236
2.37436
2.29928
2.22337
2.15786
2.12736
2.12614
2.1583
2.24965
2.49591
3.08775
3.96325
4.57157
4.47515
4.278
4.0385
3.81134
3.59635
3.39906
3.22986
3.0749
2.93731
2.81746
2.7047
2.59927
2.51055
2.4361
2.37241
2.30754
2.25407
2.21847
2.19941
2.19257
2.21079
2.24679
2.34858
2.53879
2.85651
3.3176
3.92598
4.31793
4.39587
4.28462
4.22371
4.21884
4.24286
4.2682
4.25415
4.23443
4.21317
4.18658
4.15917
4.12794
4.09106
4.04979
4.00662
3.96538
3.92737
3.89033
3.85348
3.81647
3.77884
3.74078
3.70259
3.66521
3.6291
3.59398
3.5593
3.52483
3.49043
3.45615
3.42185
3.38758
3.35327
3.31905
3.28496
3.25097
3.21696
3.18279
3.1478
3.10975
3.06459
3.03301
6.19664
5.7518
5.33134
4.952
4.63562
4.38461
4.17944
3.99739
3.82064
3.61844
3.41418
3.22138
3.01768
2.85372
2.73746
2.64055
2.56908
2.49958
2.43903
2.36136
2.28249
2.20916
2.17484
2.18207
2.24111
2.43452
2.95081
3.84511
4.61607
4.77199
4.67675
4.50127
4.29693
4.08597
3.87589
3.68163
3.49747
3.3263
3.17462
3.03426
2.90553
2.79369
2.69394
2.60346
2.50936
2.4273
2.36531
2.29833
2.23934
2.19329
2.17068
2.1656
2.18857
2.24002
2.37833
2.60459
2.97409
3.50301
4.10061
4.37725
4.33511
4.22367
4.17031
4.17225
4.18042
4.18455
4.18689
4.16113
4.12323
4.09078
4.06042
4.02761
3.98945
3.94762
3.90686
3.86984
3.83488
3.80054
3.76611
3.73133
3.69527
3.65812
3.62227
3.58807
3.55402
3.51971
3.48512
3.45052
3.4159
3.38142
3.34691
3.31255
3.27821
3.24372
3.20901
3.17393
3.13794
3.09895
3.05261
3.01993
6.22891
5.80467
5.40038
5.02445
4.71142
4.4588
4.25246
4.07429
3.89799
3.70748
3.50938
3.31674
3.13009
2.95202
2.82144
2.71008
2.6164
2.55342
2.4891
2.41848
2.34043
2.27418
2.23425
2.27878
2.42041
2.83365
3.65407
4.53753
4.90794
4.86102
4.76394
4.6315
4.47242
4.29223
4.1019
3.90665
3.72018
3.54767
3.38596
3.23624
3.1016
2.97898
2.86557
2.75279
2.65233
2.57476
2.493
2.41134
2.34238
2.27831
2.22269
2.17599
2.14938
2.14473
2.17265
2.24567
2.40109
2.69695
3.12799
3.70941
4.20077
4.36902
4.24479
4.11608
4.09024
4.10637
4.13635
4.12737
4.10307
4.07037
4.03508
4
3.96564
3.93082
3.89339
3.85474
3.81911
3.78642
3.75434
3.72192
3.68853
3.65371
3.6176
3.5818
3.54706
3.51258
3.47785
3.44315
3.40852
3.37413
3.33964
3.30512
3.27038
3.2353
3.19981
3.16387
3.12701
3.08703
3.03934
3.00533
6.28578
5.87185
5.47616
5.10163
4.78541
4.53174
4.32002
4.13815
3.96935
3.79407
3.60716
3.40772
3.23065
3.05585
2.90749
2.78751
2.68246
2.60507
2.54049
2.47268
2.39727
2.35258
2.35107
2.44654
2.78244
3.50662
4.43063
4.91868
4.93556
4.90095
4.83467
4.73998
4.61454
4.465
4.29301
4.11133
3.93004
3.75386
3.58654
3.43102
3.28632
3.15372
3.02495
2.90684
2.81323
2.71295
2.61928
2.53997
2.46821
2.39543
2.32218
2.25137
2.189
2.14657
2.10932
2.12623
2.16596
2.28003
2.47225
2.81153
3.3026
3.9265
4.24802
4.24331
4.13482
4.04018
4.00826
4.03587
4.05604
4.03917
4.01262
3.97947
3.94338
3.90652
3.87259
3.83926
3.80504
3.77187
3.74152
3.7111
3.6795
3.64696
3.61291
3.57706
3.54041
3.50447
3.46946
3.435
3.4005
3.36605
3.33127
3.29631
3.2611
3.2254
3.18898
3.1519
3.11392
3.07306
3.02431
2.98896
6.31601
5.93358
5.55411
5.18769
4.86227
4.60693
4.38709
4.19771
4.03235
3.8663
3.69041
3.50443
3.32634
3.15966
2.99909
2.86533
2.75359
2.66582
2.59132
2.50451
2.46539
2.45853
2.53808
2.7957
3.42453
4.34316
4.90439
4.98379
4.96143
4.92547
4.87572
4.80482
4.70845
4.58251
4.43658
4.27555
4.10578
3.93631
3.7701
3.61068
3.46264
3.31476
3.17768
3.07144
2.95367
2.84603
2.75747
2.67469
2.58407
2.49264
2.40897
2.33711
2.26819
2.19954
2.14193
2.10616
2.10176
2.11905
2.16927
2.31871
2.55743
2.92223
3.44288
4.00111
4.2485
4.18307
4.02173
3.96597
3.96509
3.9751
3.96974
3.95863
3.92818
3.88538
3.84428
3.81302
3.7891
3.76295
3.73507
3.70522
3.67283
3.6392
3.60429
3.56863
3.53212
3.49558
3.46
3.4253
3.39085
3.35668
3.32221
3.2871
3.25107
3.21418
3.17656
3.13846
3.0998
3.05826
3.00832
2.97151
6.36395
5.99877
5.63107
5.27478
4.93485
4.6757
4.4533
4.25672
4.09519
3.93771
3.76466
3.58938
3.41909
3.26115
3.10098
2.95406
2.83306
2.73318
2.6287
2.57375
2.5554
2.61276
2.84439
3.42206
4.32742
4.96225
5.06209
5.02393
4.98256
4.94756
4.90958
4.85664
4.78031
4.67652
4.54923
4.40755
4.25388
4.09607
3.93499
3.77963
3.62021
3.46751
3.34508
3.21365
3.08687
2.99143
2.88733
2.78504
2.68805
2.59315
2.50911
2.43032
2.3563
2.28475
2.22304
2.16084
2.11168
2.08029
2.083
2.12015
2.19014
2.3372
2.63665
3.05212
3.65436
4.08165
4.19025
4.07479
3.93496
3.89221
3.90051
3.91114
3.90584
3.87789
3.83632
3.79513
3.76396
3.74201
3.7185
3.69426
3.66591
3.63268
3.59599
3.55748
3.52008
3.48424
3.44935
3.41484
3.38007
3.34527
3.3103
3.27492
3.23866
3.20131
3.16287
3.12347
3.08368
3.04089
2.98954
2.95159
6.38382
6.07413
5.72501
5.3742
5.02918
4.74867
4.52631
4.31786
4.15563
4.00729
3.84213
3.66865
3.50284
3.3507
3.19946
3.04816
2.90829
2.76913
2.68865
2.67289
2.70616
2.89177
3.43051
4.32585
5.07305
5.21854
5.13717
5.05603
5.00934
4.97881
4.94318
4.89551
4.82891
4.74435
4.63641
4.51149
4.37206
4.22288
4.0681
3.91053
3.75405
3.62274
3.48347
3.3428
3.2316
3.11611
2.99583
2.88863
2.79221
2.69998
2.60944
2.51739
2.43464
2.36327
2.29038
2.22744
2.16941
2.11545
2.07797
2.0471
2.06157
2.09301
2.18264
2.40025
2.73145
3.21376
3.83696
4.12301
4.08583
3.94561
3.85612
3.81766
3.82682
3.83099
3.80917
3.77798
3.74597
3.71499
3.69093
3.67141
3.6505
3.62155
3.58648
3.54724
3.50758
3.47105
3.4366
3.40263
3.36814
3.33352
3.29782
3.2609
3.22279
3.18412
3.14527
3.10527
3.06478
3.02122
2.96898
2.93023
6.38712
6.10067
5.77687
5.46292
5.13748
4.8289
4.60522
4.39334
4.22603
4.07735
3.92093
3.75177
3.58139
3.43328
3.29126
3.14358
2.98421
2.83884
2.79365
2.81463
2.96591
3.4327
4.31228
5.20085
5.43656
5.32067
5.19437
5.11507
5.0653
5.02076
4.97488
4.92397
4.86494
4.79201
4.70388
4.59528
4.47132
4.33176
4.18795
4.03475
3.89106
3.74451
3.59545
3.46888
3.33914
3.2112
3.10354
2.99731
2.89174
2.79517
2.69742
2.6064
2.5188
2.44265
2.36924
2.3054
2.24616
2.17938
2.12029
2.0716
2.04351
2.01652
2.01527
2.06503
2.1863
2.45783
2.87354
3.42618
3.92948
4.09112
3.99801
3.86438
3.77453
3.74712
3.75859
3.75254
3.7367
3.71271
3.6827
3.65667
3.63373
3.60845
3.57708
3.54026
3.49996
3.46057
3.42404
3.38932
3.35398
3.31861
3.28238
3.24524
3.2068
3.1666
3.12556
3.08437
3.0435
3.00008
2.94693
2.90691
6.40746
6.14469
5.85657
5.5474
5.24656
4.92757
4.68981
4.47788
4.27985
4.13617
3.99891
3.8396
3.66654
3.50581
3.36581
3.22324
3.04833
2.966
2.9487
3.07093
3.4728
4.29957
5.29564
5.6654
5.53468
5.37923
5.27002
5.19109
5.1202
5.05908
5.0048
4.95059
4.89251
4.82589
4.74796
4.65544
4.54877
4.42879
4.29701
4.15772
4.01076
3.85802
3.71965
3.58037
3.44249
3.32143
3.21308
3.10528
3.00214
2.902
2.80441
2.71097
2.62213
2.53526
2.46136
2.38806
2.32223
2.25942
2.19522
2.13646
2.07341
2.01476
1.9718
1.93512
1.98177
2.08655
2.2515
2.56849
3.03264
3.64313
3.97167
3.98504
3.86647
3.74735
3.69554
3.68873
3.68661
3.68414
3.67852
3.65603
3.62681
3.59421
3.55923
3.52212
3.48366
3.44624
3.40994
3.37406
3.33816
3.30197
3.26485
3.22581
3.18509
3.14439
3.10318
3.06073
3.01842
2.97466
2.92185
2.8814
6.3256
6.19454
5.93667
5.65603
5.35679
5.04192
4.77604
4.56974
4.35302
4.20062
4.06561
3.91909
3.75296
3.57391
3.42736
3.27717
3.15614
3.10677
3.19464
3.55421
4.33415
5.402
5.89974
5.76549
5.59979
5.47663
5.38031
5.28505
5.19498
5.11565
5.04765
4.98479
4.92141
4.85456
4.78157
4.69983
4.60593
4.50011
4.38047
4.25304
4.11501
3.97765
3.83726
3.69882
3.56618
3.43895
3.31885
3.20672
3.09786
2.99277
2.89191
2.79401
2.70009
2.61119
2.53182
2.45815
2.3902
2.32813
2.26883
2.20299
2.13629
2.06657
1.99866
1.95281
1.92992
1.94651
1.98112
2.11738
2.34563
2.69096
3.19783
3.73627
3.95108
3.89961
3.76666
3.67503
3.631
3.63042
3.63441
3.63602
3.61923
3.58802
3.54431
3.4992
3.45953
3.42503
3.39115
3.35555
3.31811
3.27976
3.24077
3.20181
3.1612
3.11962
3.07779
3.03517
2.99245
2.94805
2.89532
2.85495
5.75899
6.2516
6.01401
5.72796
5.43684
5.13931
4.8588
4.65443
4.44358
4.26022
4.12677
3.99042
3.82902
3.64371
3.48944
3.3649
3.31898
3.36783
3.67946
4.41556
5.51599
6.11355
5.99709
5.83441
5.7038
5.59575
5.48634
5.3753
5.26928
5.17316
5.08941
5.01587
4.94604
4.87655
4.80409
4.72673
4.64129
4.54689
4.44181
4.32698
4.20317
4.07249
3.93693
3.80221
3.66908
3.53954
3.41539
3.2981
3.18611
3.07813
2.97474
2.87568
2.78088
2.69373
2.61163
2.53871
2.46791
2.4013
2.33843
2.27479
2.20747
2.13422
2.06224
1.99109
1.94198
1.92319
1.91984
1.94197
2.00941
2.16317
2.4433
2.85089
3.41116
3.79599
3.87987
3.79848
3.68388
3.60539
3.57347
3.57745
3.58102
3.56475
3.53092
3.48738
3.44243
3.40266
3.36791
3.3331
3.29531
3.25578
3.21649
3.17459
3.13271
3.09016
3.04846
3.00677
2.96421
2.91945
2.86626
2.82616
4.51203
5.83668
5.93243
5.7274
5.48466
5.23805
4.95882
4.71775
4.50835
4.31418
4.18094
4.04563
3.88604
3.69679
3.56633
3.51615
3.56743
3.8631
4.57082
5.69984
6.36358
6.27039
6.10769
5.96344
5.84235
5.72207
5.60065
5.47926
5.36207
5.25269
5.15227
5.06166
4.98044
4.90442
4.82817
4.75058
4.66882
4.58156
4.48596
4.38177
4.26874
4.14829
4.02306
3.89496
3.76674
3.6404
3.51737
3.39837
3.28303
3.17092
3.06248
2.95793
2.86039
2.76907
2.68668
2.60917
2.53871
2.47057
2.40187
2.33572
2.26694
2.19497
2.11995
2.05346
2.00674
1.95852
1.92322
1.89276
1.90407
1.95591
2.05923
2.25225
2.55982
3.00188
3.54936
3.77907
3.76499
3.67399
3.58928
3.53005
3.50994
3.50453
3.48944
3.46401
3.4279
3.38205
3.33949
3.30274
3.26626
3.22642
3.18793
3.14756
3.10397
3.06065
3.01763
2.97622
2.93406
2.89049
2.83794
2.79761
3.27913
5.09767
5.95133
5.81217
5.58458
5.34884
5.10893
4.83888
4.60169
4.39711
4.22643
4.09616
3.93955
3.78845
3.70466
3.76274
4.05892
4.7754
5.95343
6.67054
6.57838
6.38992
6.21479
6.08174
5.95481
5.8302
5.7025
5.5726
5.4453
5.32401
5.21032
5.10603
5.01156
4.92625
4.84514
4.76527
4.68383
4.59927
4.50979
4.41453
4.31186
4.20317
4.08814
3.96958
3.84829
3.72683
3.60588
3.48738
3.37074
3.25624
3.14536
3.03869
2.93811
2.84663
2.76196
2.68399
2.61128
2.54086
2.47211
2.4033
2.33436
2.26171
2.19144
2.13128
2.07488
2.02492
1.97606
1.92972
1.90203
1.89914
1.91998
1.96803
2.09186
2.33062
2.66952
3.14594
3.58751
3.74119
3.68938
3.57988
3.48772
3.44824
3.44195
3.432
3.40902
3.36707
3.31878
3.27219
3.23123
3.19149
3.15232
3.11508
3.07244
3.02843
2.98585
2.94412
2.90151
2.8576
2.80649
2.76676
2.43325
4.08774
5.53541
5.91326
5.72855
5.42902
5.18159
4.9278
4.69499
4.4792
4.27987
4.12053
3.99954
3.94076
3.97519
4.27345
5.0141
6.26653
7.04866
6.94936
6.73265
6.50622
6.3498
6.22084
6.08953
5.95617
5.81777
5.67981
5.54552
5.41585
5.29145
5.17338
5.06377
4.96374
4.87235
4.78568
4.70091
4.61539
4.52797
4.43664
4.34122
4.24063
4.13567
4.02628
3.9146
3.79983
3.68516
3.56974
3.45419
3.33924
3.2255
3.11564
3.01236
2.91827
2.83157
2.75112
2.67481
2.59935
2.52658
2.45234
2.37656
2.30368
2.23613
2.17705
2.12103
2.0714
2.02581
1.97669
1.93125
1.89729
1.88176
1.87605
1.9213
1.99631
2.14063
2.41253
2.82961
3.33901
3.6058
3.61802
3.55413
3.47707
3.42547
3.38936
3.36008
3.33952
3.30061
3.24926
3.199
3.15435
3.11309
3.07683
3.04024
2.99768
2.95581
2.91479
2.871
2.82351
2.77082
2.73133
1.48356
2.66246
4.3073
5.45882
5.60876
5.41424
5.18566
4.95915
4.73948
4.55291
4.35459
4.19505
4.13506
4.19401
4.5046
5.2936
6.62453
7.49172
7.38504
7.13101
6.85231
6.65649
6.50679
6.35939
6.2113
6.06331
5.91712
5.77371
5.63244
5.4946
5.36136
5.23336
5.11206
4.99913
4.89606
4.80093
4.71036
4.62245
4.53358
4.44378
4.35169
4.25744
4.16058
4.06104
3.95874
3.85336
3.74568
3.63586
3.52437
3.41043
3.29588
3.18457
3.08069
2.98458
2.89685
2.81424
2.73532
2.65898
2.58405
2.50938
2.4346
2.3617
2.2914
2.22803
2.17372
2.12452
2.08018
2.03416
1.99149
1.94766
1.90728
1.87917
1.86582
1.86662
1.89746
2.01713
2.21357
2.54502
2.97049
3.38869
3.55247
3.54605
3.47119
3.37736
3.30569
3.27178
3.24078
3.20515
3.16362
3.11538
3.07157
3.03123
2.99647
2.95972
2.9204
2.88145
2.83969
2.7928
2.7379
2.6967
0.991544
1.65737
3.12006
4.75771
5.54328
5.48877
5.26629
5.06345
4.84199
4.63612
4.44505
4.34692
4.40727
4.74706
5.59467
7.01728
7.98073
7.86813
7.57306
7.24695
7.02004
6.85428
6.69145
6.52277
6.3561
6.19494
6.03988
5.8867
5.73602
5.58908
5.44728
5.31066
5.17902
5.05381
4.93741
4.83027
4.73029
4.63487
4.54241
4.45095
4.36049
4.26967
4.17853
4.08638
3.9923
3.89551
3.79566
3.69317
3.58695
3.47706
3.36553
3.25642
3.15317
3.05685
2.96746
2.88363
2.8031
2.72525
2.64724
2.57066
2.49548
2.42023
2.34855
2.2828
2.22662
2.17539
2.12648
2.08466
2.03943
1.99352
1.94563
1.90379
1.86507
1.84586
1.82446
1.84871
1.9115
2.03852
2.29096
2.64182
3.11689
3.41764
3.47324
3.41712
3.3147
3.22032
3.16902
3.14454
3.11348
3.07586
3.03901
2.99982
2.96193
2.92097
2.88039
2.84295
2.80407
2.76019
2.70423
2.66045
1.02874
1.26046
2.19978
3.76251
5.16056
5.61319
5.44482
5.20341
4.97441
4.72931
4.5987
4.63487
4.98525
5.89794
7.44549
8.48879
8.3602
8.02108
7.6422
7.3838
7.20604
7.02509
6.83816
6.64906
6.47132
6.30225
6.13718
5.9755
5.81766
5.66406
5.51538
5.37182
5.23298
5.09894
4.97211
4.85444
4.74526
4.64186
4.54256
4.44676
4.3547
4.26608
4.17919
4.09233
4.00435
3.91463
3.82231
3.72667
3.6265
3.52163
3.41401
3.30748
3.20461
3.10754
3.01627
2.93029
2.84846
2.76791
2.68921
2.61103
2.53541
2.46405
2.39782
2.33643
2.28036
2.22783
2.17807
2.1295
2.08617
2.04231
2.00177
1.96026
1.91722
1.87413
1.83403
1.80047
1.80736
1.81761
1.88283
2.05683
2.3624
2.82504
3.18613
3.33955
3.32211
3.24653
3.15854
3.08836
3.0407
3.01988
2.98752
2.95381
2.919
2.88031
2.83865
2.79993
2.76485
2.72355
2.66708
2.62133
1.00664
1.04497
1.43675
2.53444
4.10331
5.19574
5.38544
5.20557
4.98295
4.85195
4.89432
5.27039
6.26296
7.96247
9.09344
8.90711
8.48955
8.05973
7.78425
7.61324
7.43054
7.23151
7.01844
6.81175
6.6173
6.43259
6.25426
6.08185
5.91548
5.75413
5.59797
5.44687
5.30044
5.15897
5.02308
4.89514
4.77625
4.6638
4.55558
4.4516
4.35446
4.26546
4.18131
4.09795
4.01422
3.92973
3.84368
3.75422
3.66002
3.56117
3.46029
3.36061
3.26432
3.17177
3.08297
2.99757
2.91417
2.83261
2.75201
2.67354
2.5974
2.52679
2.46208
2.40176
2.34485
2.29071
2.23764
2.18747
2.14061
2.09417
2.05008
2.0041
1.95697
1.91127
1.86953
1.82611
1.78815
1.76493
1.7364
1.79241
1.92238
2.12709
2.47737
2.8942
3.16166
3.22807
3.19656
3.10788
3.02184
2.96108
2.92146
2.89087
2.86118
2.83492
2.79977
2.76012
2.72468
2.68371
2.62469
2.57672
1.00043
1.01741
1.04457
1.57892
2.74207