/*--------------------------------*- C++ -*----------------------------------*\
| =========                 |                                                 |
| \\      /  F ield         | OpenFOAM: The Open Source CFD Toolbox           |
|  \\    /   O peration     | Version:  v2106                                 |
|   \\  /    A nd           | Website:  www.openfoam.com                      |
|    \\/     M anipulation  |                                                 |
\*---------------------------------------------------------------------------*/
FoamFile
{
    version     2.0;
    format      ascii;
    arch        "LSB;label=32;scalar=64";
    class       surfaceScalarField;
    location    "17";
    object      phi;
}
// * * * * * * * * * * * * * * * * * * * * * * * * * * * * * * * * * * * * * //

dimensions      [1 0 -1 0 0 0 0];

oriented        oriented;

internalField   nonuniform List<scalar> 
10325
(
0.0084507
-1.50704e-17
0.0084507
2.15756e-17
0.0084507
4.36283e-16
0.0084507
7.69648e-16
0.0084507
3.42842e-14
0.0084507
3.05643e-14
0.0084507
2.89053e-12
0.0084507
-3.85753e-13
0.00845067
2.38624e-10
0.00845044
4.26543e-10
0.00844834
1.84928e-08
0.00842971
8.25354e-08
0.00827753
1.33427e-06
0.00747332
1.34171e-05
0.00648275
2.59264e-05
0.00576883
0.000769783
0.00696025
0.000640848
0.00632369
0.0006322
0.00556378
0.00070564
0.00485008
0.000747318
0.00403368
0.000819862
0.00314744
0.000892758
0.00220378
0.000958152
0.00117971
0.00102982
0.00115867
0.0084507
-1.31731e-17
0.0084507
1.76454e-17
0.0084507
8.79342e-16
0.0084507
-2.2115e-15
0.0084507
7.24944e-14
0.0084507
-3.86176e-13
0.0084507
6.38147e-12
0.0084507
-4.06143e-11
0.00845068
5.27871e-10
0.00845045
-8.52598e-10
0.00844842
3.96408e-08
0.00843034
8.43265e-08
0.00828288
2.7864e-06
0.007487
2.73988e-05
0.0064823
6.48758e-05
0.00572579
0.00150779
0.00692286
0.00134214
0.00629673
0.00125438
0.00552941
0.00141914
0.00481264
0.00149778
0.00399393
0.00164281
0.00310626
0.00178805
0.00214327
0.00193651
0.00109817
0.00208149
0.00223601
0.0084507
8.13152e-19
0.0084507
8.61941e-18
0.0084507
1.58191e-15
0.0084507
-2.00185e-14
0.0084507
1.73376e-13
0.0084507
-4.66829e-12
0.0084507
1.651e-11
0.0084507
-4.13216e-10
0.00845068
1.09e-09
0.00845047
-1.13753e-08
0.00844859
6.24811e-08
0.00843178
-2.1563e-07
0.00829506
4.13325e-06
0.00752192
3.90517e-05
0.0065072
0.000104805
0.00572218
0.00208101
0.00696467
0.00218991
0.00631645
0.00189566
0.00554111
0.00213682
0.0048339
0.00224124
0.00402451
0.00245757
0.00312931
0.00269272
0.00216161
0.0029243
0.00111231
0.00314208
0.00333358
0.0084507
-2.89482e-17
0.0084507
7.01208e-17
0.0084507
1.08767e-15
0.0084507
-4.34437e-14
0.0084507
3.79132e-13
0.0084507
-7.00008e-12
0.0084507
2.65657e-11
0.0084507
-3.74087e-10
0.00845068
1.44768e-09
0.00845047
-7.95158e-09
0.0084488
7.90513e-08
0.00843415
-1.72855e-06
0.00831295
5.51198e-06
0.00757476
4.76354e-05
0.00655203
0.000140481
0.00583432
0.0025127
0.0070621
0.00310139
0.00639414
0.00255802
0.0056056
0.00286902
0.00487825
0.00300901
0.00406015
0.00328079
0.00317251
0.00359031
0.00222148
0.00389558
0.00114965
0.00422613
0.00446819
0.0084507
-1.30511e-16
0.0084507
2.34188e-16
0.0084507
-5.73668e-15
0.0084507
-4.10969e-14
0.0084507
1.92423e-13
0.0084507
-3.77342e-12
0.0084507
2.28708e-11
0.0084507
-3.97499e-11
0.00845069
1.17109e-09
0.0084505
-2.36136e-09
0.00844902
1.51356e-07
0.00843644
-3.78484e-06
0.00833328
6.50212e-06
0.00764377
5.20051e-05
0.00662019
0.000161633
0.00601816
0.00272724
0.00721439
0.00411721
0.00652359
0.00324252
0.00572892
0.00360728
0.00499026
0.00379719
0.00420393
0.00407564
0.00333643
0.00447037
0.0023576
0.00490125
0.00121841
0.0053798
0.00567645
0.0084507
-7.83607e-17
0.0084507
6.53449e-16
0.0084507
-1.55057e-15
0.0084507
4.07174e-14
0.0084507
-5.42616e-13
0.0084507
-1.68264e-12
0.0084507
2.43138e-11
0.0084507
-3.22338e-11
0.00845069
1.38149e-09
0.00845056
-1.52448e-08
0.00844947
1.47772e-07
0.00843717
-2.12094e-06
0.00835171
5.79454e-06
0.00772529
4.9475e-05
0.00670912
0.000160555
0.0063067
0.00257526
0.0075083
0.00522162
0.00676142
0.00398473
0.0059565
0.00435362
0.00517708
0.00463154
0.0043725
0.00488523
0.00345254
0.0053997
0.00246605
0.00591395
0.00129713
0.00657343
0.00697338
0.0084507
3.32037e-17
0.0084507
1.9082e-16
0.0084507
4.83909e-15
0.0084507
3.1901e-14
0.0084507
2.38009e-14
0.0084507
1.00832e-12
0.0084507
1.684e-11
0.0084507
6.08952e-12
0.00845069
1.20873e-09
0.00845058
-1.01586e-08
0.00844982
6.88451e-08
0.00843888
3.55002e-07
0.00837073
4.4048e-06
0.00781392
4.33389e-05
0.00678014
0.000175825
0.00656648
0.00207907
0.00806639
0.0061322
0.00721464
0.00483641
0.00636375
0.00514696
0.00556737
0.00549923
0.00471962
0.0057477
0.00388896
0.00625764
0.00280814
0.00704344
0.00152628
0.00787592
0.00851041
0.0084507
6.78168e-17
0.0084507
7.1476e-17
0.0084507
3.57063e-15
0.0084507
2.0775e-14
0.0084507
2.51921e-13
0.0084507
2.03485e-12
0.0084507
-9.85411e-12
0.0084507
4.62443e-12
0.0084507
6.19322e-10
0.00845057
3.51295e-09
0.00845006
5.04666e-08
0.0084415
3.90594e-07
0.00838716
4.0105e-06
0.00789442
3.91987e-05
0.00684045
0.00021805
0.00654046
0.00163425
0.00836066
0.0066858
0.00757319
0.00562828
0.00681594
0.0058481
0.00601456
0.00637527
0.00518608
0.0065966
0.00417696
0.00729183
0.00300755
0.00823618
0.00172987
0.00920783
0.0102978
0.0084507
6.14201e-17
0.0084507
-2.30393e-17
0.0084507
2.23652e-15
0.0084507
2.05833e-14
0.0084507
1.64638e-13
0.0084507
1.84421e-12
0.0084507
-3.63767e-11
0.0084507
7.72335e-12
0.0084507
2.3453e-10
0.0084506
4.37376e-09
0.00845023
3.17717e-08
0.00844327
3.75783e-07
0.00840161
3.13836e-06
0.00798656
3.33058e-05
0.00697186
0.000231455
0.0065041
0.00133205
0.00842886
0.00705742
0.00788439
0.00617198
0.00724943
0.0064547
0.00652373
0.00711958
0.00571764
0.00743241
0.00482564
0.0082348
0.00382433
0.00933165
0.00255882
0.0105235
0.012992
0.0084507
1.1563e-16
0.0084507
-2.77556e-17
0.0084507
8.39343e-15
0.0084507
-1.38892e-15
0.0084507
6.06413e-13
0.0084507
-2.53163e-12
0.0084507
1.95095e-11
0.0084507
2.37573e-10
0.0084507
-4.24996e-10
0.00845061
7.09643e-09
0.00845043
-1.73837e-08
0.00844428
3.78229e-07
0.00841305
4.16264e-06
0.00810116
-2.47867e-05
0.00714759
0.000242187
0.00650832
0.00116086
0.00829345
0.00746757
0.00805903
0.00644039
0.00769734
0.0068269
0.00709168
0.00775172
0.00630948
0.00826793
0.00540522
0.00916384
0.00442408
0.0103787
0.00273405
0.0122444
0.0162309
0.0084507
2.62106e-17
0.0084507
1.26418e-16
0.0084507
4.44279e-15
0.0084507
-8.31448e-16
0.0084507
3.88379e-13
0.0084507
-3.19635e-12
0.0084507
1.81778e-11
0.0084507
1.20548e-10
0.0084507
1.41464e-10
0.00845065
7.9291e-09
0.00845022
-5.00885e-08
0.00844646
4.86636e-07
0.00842095
-6.23398e-06
0.00817081
-2.49091e-05
0.00726631
0.000234158
0.00652616
0.00103358
0.0080533
0.00754948
0.00821442
0.00681389
0.00801875
0.007076
0.00753748
0.0082075
0.00692095
0.00892737
0.00627091
0.00991178
0.00589481
0.0109488
0.00583226
0.0127
0.0138449
0.00902939
0.0084507
1.50975e-17
0.0084507
-6.50521e-18
0.0084507
2.85335e-16
0.0084507
3.31224e-16
0.0084507
9.50199e-14
0.0084507
3.63896e-13
0.0084507
6.9967e-12
0.0084507
2.88764e-12
0.0084507
4.07302e-10
0.00845067
5.74174e-09
0.00845039
-2.5812e-08
0.00844826
4.1056e-07
0.00842883
-8.84846e-06
0.00823324
2.20863e-05
0.00740909
0.000189358
0.00663002
0.0008787
0.00749161
0.00754347
0.00804394
0.00746831
0.00790078
0.00727249
0.00786441
0.00824666
0.00761167
0.00917478
0.00730058
0.0102322
0.00742398
0.0109041
0.00794805
0.0119325
0.0123128
0.0102619
0.0084507
2.42861e-17
0.0084507
-2.43403e-17
0.0084507
7.42977e-16
0.0084507
5.24719e-15
0.0084507
-1.14718e-14
0.0084507
-1.83278e-13
0.0084507
-5.78069e-13
0.0084507
3.53779e-11
0.0084507
2.76606e-12
0.00845068
3.16352e-09
0.00845061
8.96636e-09
0.00844912
1.91407e-07
0.00843138
1.10863e-06
0.00833328
1.2149e-05
0.0077066
0.000124739
0.00691464
0.000607458
0.00756304
0.00651784
0.00847296
0.00880122
0.00800169
0.00767749
0.0079175
0.00832528
0.00800632
0.00912274
0.00818851
0.0100485
0.00857685
0.0106866
0.00915072
0.0113188
0.0113566
0.0106902
0.0084507
5.99022e-18
0.0084507
9.40545e-18
0.0084507
1.11006e-15
0.0084507
5.56383e-15
0.0084507
3.97641e-14
0.0084507
3.80024e-13
0.0084507
2.48011e-12
0.0084507
-2.20054e-11
0.0084507
5.12334e-11
0.0084507
1.28553e-09
0.00845057
7.99432e-09
0.00845
1.09346e-07
0.00844083
7.53021e-07
0.00838206
8.37247e-06
0.00788385
8.28559e-05
0.00702157
0.000401882
0.00771249
0.00477995
0.0092251
0.010031
0.00859621
0.00832521
0.00832377
0.00855842
0.00840145
0.00906253
0.00871689
0.00979491
0.00919828
0.010378
0.00983829
0.0108232
0.0105485
0.0111532
0.0084507
-3.68629e-18
0.0084507
7.43492e-17
0.0084507
2.32724e-16
0.0084507
7.05379e-15
0.0084507
3.19361e-14
0.0084507
6.20106e-13
0.0084507
3.8214e-13
0.0084507
1.93809e-11
0.0084507
4.01876e-10
0.0084507
-3.94532e-11
0.00845059
9.67386e-09
0.00845039
4.5692e-08
0.00844359
3.69523e-07
0.00841089
5.78538e-06
0.00807855
-9.27055e-07
0.00713921
0.0003842
0.00759955
0.00313777
0.00996205
0.0103597
0.00945207
0.00899998
0.0090662
0.0090756
0.00889073
0.00925684
0.00904721
0.00965601
0.00954348
0.00997189
0.0102348
0.0102305
0.00987821
0.0112729
0.0084507
-5.42101e-19
0.0084507
3.60226e-17
0.0084507
1.70518e-16
0.0084507
2.43273e-15
0.0084507
-8.43233e-15
0.0084507
2.22054e-13
0.0084507
-1.19176e-12
0.0084507
1.06081e-11
0.0084507
2.97876e-10
0.0084507
1.94453e-10
0.00845066
6.91706e-09
0.00845029
4.27157e-08
0.00844693
1.89943e-07
0.0084199
4.63187e-06
0.00819529
-1.79264e-05
0.00736027
0.000326916
0.00734304
0.00197562
0.00992805
0.00917868
0.0102132
0.00976464
0.00989239
0.00963218
0.00957831
0.0095575
0.00953312
0.00966262
0.00981637
0.00974132
0.0103556
0.00981197
0.00940587
0.0110974
0.0084507
3.25261e-18
0.0084507
-2.12233e-17
0.0084507
2.13696e-16
0.0084507
1.3823e-15
0.0084507
-6.23243e-15
0.0084507
1.19332e-13
0.0084507
-1.67173e-13
0.0084507
7.3877e-12
0.0084507
8.42066e-11
0.0084507
5.10678e-10
0.00845071
2.71176e-09
0.00845043
3.21203e-08
0.00844975
2.36765e-07
0.00843443
2.41026e-06
0.00830899
2.03707e-05
0.00766907
0.000188415
0.00724868
0.00120153
0.0089028
0.00740621
0.010303
0.0104458
0.0100901
0.00987914
0.00995496
0.00961788
0.00993341
0.00966002
0.0101285
0.00960653
0.0104935
0.00956383
0.00910909
0.0109963
0.0084507
2.08709e-18
0.0084507
2.4774e-17
0.0084507
2.73544e-16
0.0084507
2.74168e-16
0.0084507
1.26301e-14
0.0084507
5.73905e-14
0.0084507
6.66707e-13
0.0084507
6.60447e-12
0.0084507
1.3062e-11
0.0084507
4.04141e-10
0.0084507
1.849e-10
0.00845056
1.53351e-08
0.00845017
8.19365e-08
0.00844166
8.38541e-07
0.00839577
9.70688e-06
0.00800081
4.28673e-05
0.00732445
0.000765556
0.00849624
0.00502056
0.0108751
0.0109443
0.0106437
0.0101261
0.0106071
0.00985513
0.0105327
0.00974834
0.0105863
0.00962123
0.0107797
0.00948069
0.00897451
0.0110794
0.0084507
-5.42101e-19
0.0084507
1.97596e-17
0.0084507
5.76525e-17
0.0084507
1.73852e-16
0.0084507
1.0529e-15
0.0084507
1.06114e-14
0.0084507
4.55792e-13
0.0084507
1.92593e-12
0.0084507
4.87427e-12
0.0084507
1.55535e-10
0.0084507
2.86525e-10
0.00845064
7.7375e-09
0.00845017
6.73247e-08
0.00844599
3.38423e-07
0.00841255
6.58957e-06
0.00815546
7.58625e-07
0.00741564
0.000484225
0.00813829
0.00298372
0.0112267
0.00981852
0.0115024
0.0106993
0.0112947
0.0103488
0.0110987
0.0100015
0.0110266
0.00972278
0.0111061
0.00946883
0.0089513
0.0112601
0.0084507
1.24683e-18
0.0084507
-6.61363e-18
0.0084507
7.9987e-17
0.0084507
3.91261e-16
0.0084507
5.388e-15
0.0084507
3.93454e-14
0.0084507
2.25821e-14
0.0084507
1.74656e-12
0.0084507
7.24358e-12
0.0084507
1.24285e-10
0.0084507
1.0482e-09
0.00845071
2.11952e-09
0.00845033
4.79177e-08
0.00844975
2.64085e-07
0.00842993
2.78496e-06
0.00829297
3.49969e-05
0.00782709
-1.73124e-05
0.00791604
0.00168066
0.0102001
0.00781163
0.0117995
0.0112491
0.0116395
0.0107588
0.0114346
0.0101418
0.0113492
0.00977783
0.0113836
0.00946943
0.00895118
0.0114798
0.0084507
6.23416e-19
0.0084507
-7.39968e-18
0.0084507
3.80284e-17
0.0084507
2.11772e-16
0.0084507
2.60379e-15
0.0084507
2.02441e-14
0.0084507
3.75928e-14
0.0084507
4.61112e-13
0.0084507
2.85141e-12
0.0084507
4.93904e-11
0.0084507
4.36678e-10
0.00845069
5.32502e-10
0.00845059
1.679e-08
0.00844975
9.02218e-08
0.0084427
1.06213e-06
0.00838789
1.99863e-05
0.00803972
-0.000140144
0.00743029
0.00105223
0.00894067
0.00505253
0.0119427
0.0110251
0.0119317
0.0109242
0.0119009
0.0104124
0.0117569
0.00997229
0.011711
0.0095503
0.0090107
0.0117319
0.0084507
1.19262e-18
0.0084507
1.24683e-18
0.0084507
1.42844e-17
0.0084507
8.07731e-17
0.0084507
5.77527e-16
0.0084507
2.03461e-15
0.0084507
3.03741e-14
0.0084507
3.85451e-13
0.0084507
1.87137e-12
0.0084507
2.2272e-11
0.0084507
3.41893e-13
0.00845069
8.62703e-10
0.00845059
1.26043e-08
0.00845033
1.37286e-07
0.00845096
4.6028e-07
0.0084162
6.02899e-06
0.00812175
5.6576e-05
0.00769473
6.00524e-05
0.0086856
0.00295805
0.0119287
0.00921602
0.0127374
0.0113774
0.0124892
0.0109336
0.0122842
0.0102147
0.0121518
0.00972473
0.00917175
0.0120611
0.0084507
3.79471e-19
0.0084507
-3.25261e-19
0.0084507
6.55942e-18
0.0084507
3.41524e-17
0.0084507
3.92752e-16
0.0084507
-2.06188e-15
0.0084507
1.61752e-14
0.0084507
2.13064e-13
0.0084507
8.71879e-13
0.0084507
7.44264e-12
0.0084507
9.01428e-11
0.0084507
-5.99323e-11
0.00845068
6.67121e-09
0.00845054
6.0155e-08
0.00844931
1.17607e-07
0.00843936
2.02062e-06
0.00836189
3.06229e-05
0.00799472
-0.000198463
0.00781769
0.00170272
0.00993557
0.00664283
0.012612
0.0113909
0.0125178
0.0110207
0.0125666
0.0103436
0.0124711
0.00989138
0.00933199
0.0123827
0.0084507
5.42101e-20
0.0084507
6.77626e-19
0.0084507
1.97867e-18
0.0084507
2.94361e-17
0.0084507
2.66985e-17
0.0084507
1.52152e-15
0.0084507
8.2755e-15
0.0084507
9.72391e-14
0.0084507
2.8409e-13
0.0084507
6.13294e-12
0.0084507
1.11386e-12
0.0084507
4.30376e-10
0.0084507
1.86254e-09
0.00845052
2.92527e-08
0.00845061
1.98187e-07
0.00845188
7.99378e-07
0.0084093
8.60278e-06
0.00804643
7.11315e-05
0.00778314
0.000273836
0.00933971
0.00392309
0.0127775
0.00996737
0.013336
0.0114151
0.0131061
0.0108473
0.0129049
0.0101416
0.00955817
0.0127402
0.0084507
5.42101e-20
0.0084507
1.13841e-18
0.0084507
2.1684e-19
0.0084507
1.52601e-17
0.0084507
-1.07065e-17
0.0084507
5.49555e-16
0.0084507
2.69993e-15
0.0084507
3.14775e-14
0.0084507
2.17893e-13
0.0084507
2.61354e-12
0.0084507
-8.33561e-12
0.0084507
1.93319e-10
0.0084507
5.12049e-10
0.00845068
1.1281e-08
0.00845052
1.93995e-08
0.008449
2.77133e-07
0.00843624
2.39467e-06
0.00834525
3.27862e-05
0.00799719
-0.000164623
0.00840023
0.00197162
0.0111653
0.00733069
0.0134613
0.0115419
0.0133273
0.011105
0.0132736
0.010347
0.00981319
0.0131069
0.0084507
-2.71051e-19
0.0084507
6.23416e-19
0.0084507
-7.58942e-19
0.0084507
1.84314e-18
0.0084507
8.45678e-18
0.0084507
1.79435e-16
0.0084507
1.9775e-15
0.0084507
1.43723e-14
0.0084507
4.84435e-14
0.0084507
9.07929e-13
0.0084507
2.45324e-12
0.0084507
3.24618e-11
0.0084507
5.58271e-10
0.00845069
3.26806e-09
0.00845053
-3.91296e-08
0.00845038
2.76454e-07
0.00845163
1.1617e-06
0.00840516
9.82925e-06
0.00803558
8.88978e-05
0.00776628
0.00045434
0.009618
0.00436816
0.0133387
0.0100837
0.013891
0.0113499
0.0136898
0.010837
0.0101019
0.0134686
0.0084507
3.52366e-19
0.0084507
4.60786e-19
0.0084507
7.58942e-19
0.0084507
1.16552e-18
0.0084507
-5.80048e-18
0.0084507
9.05309e-17
0.0084507
4.82416e-16
0.0084507
7.10795e-15
0.0084507
2.04757e-15
0.0084507
3.17357e-13
0.0084507
-1.02926e-12
0.0084507
-1.21046e-11
0.0084507
2.36644e-10
0.0084507
3.37141e-10
0.00845065
1.3005e-08
0.00845046
9.1362e-08
0.00844896
2.85561e-07
0.00843562
1.73082e-06
0.00835201
3.40401e-05
0.00805566
-0.000122517
0.00866985
0.00219538
0.011686
0.00742572
0.0139688
0.01137
0.0138537
0.0110893
0.0102802
0.0138138
0.0084507
6.50521e-19
0.0084507
8.67362e-19
0.0084507
1.16552e-18
0.0084507
2.03288e-18
0.0084507
6.15285e-18
0.0084507
9.73071e-18
0.0084507
2.54625e-16
0.0084507
1.66525e-15
0.0084507
2.1417e-14
0.0084507
1.09517e-13
0.0084507
1.52305e-12
0.0084507
1.35956e-11
0.0084507
3.63916e-11
0.0084507
6.22646e-10
0.0084507
2.36214e-09
0.00845046
4.46927e-08
0.00845082
2.19275e-07
0.00845117
1.43379e-06
0.00840867
3.94325e-06
0.00807752
9.54753e-05
0.0077841
0.000700956
0.00976693
0.00431378
0.0136619
0.00966631
0.0143164
0.0112348
0.0107907
0.0141153
0.0084507
-5.69206e-19
0.0084507
-1.24683e-18
0.0084507
-1.70762e-18
0.0084507
-2.1684e-18
0.0084507
-5.42101e-20
0.0084507
4.17418e-18
0.0084507
3.03848e-17
0.0084507
9.07938e-16
0.0084507
3.46413e-15
0.0084507
5.38006e-14
0.0084507
5.39682e-13
0.0084507
7.43344e-12
0.0084507
1.02319e-11
0.0084507
2.55918e-10
0.0084507
5.79321e-10
0.00845068
1.79042e-08
0.0084505
4.47908e-08
0.00844916
4.93367e-07
0.00843702
-5.02457e-06
0.00837486
3.08111e-05
0.00813716
2.43655e-05
0.00880019
0.00210332
0.0117881
0.00702319
0.0143423
0.0110406
0.0109445
0.0142489
0.0084507
-1.89735e-19
0.0084507
-7.31836e-19
0.0084507
-1.21973e-18
0.0084507
-2.62919e-18
0.0084507
-1.73472e-18
0.0084507
8.13152e-20
0.0084507
5.2638e-17
0.0084507
3.87141e-16
0.0084507
1.107e-15
0.0084507
2.81248e-14
0.0084507
8.68526e-14
0.0084507
1.67399e-12
0.0084507
5.14259e-12
0.0084507
7.38523e-11
0.0084507
5.45112e-10
0.0084507
4.66788e-09
0.00845063
1.42911e-09
0.00845103
2.24974e-07
0.00844499
1.06658e-06
0.00841116
-1.84587e-06
0.00818445
9.86259e-05
0.00784555
0.00081101
0.00975203
0.00394826
0.0137203
0.00896837
0.0110307
0.0146685
0.0084507
1.6263e-19
0.0084507
-8.13152e-20
0.0084507
2.71051e-20
0.0084507
1.89735e-19
0.0084507
4.33681e-19
0.0084507
-2.71051e-20
0.0084507
2.37711e-17
0.0084507
1.29643e-16
0.0084507
1.40567e-15
0.0084507
7.22171e-15
0.0084507
3.81187e-14
0.0084507
5.9475e-13
0.0084507
-4.04443e-13
0.0084507
2.84349e-11
0.0084507
1.39661e-10
0.0084507
1.8045e-09
0.00845069
7.86315e-09
0.0084505
8.08974e-08
0.00844978
2.10535e-07
0.00843941
-1.02902e-05
0.0083989
2.99167e-05
0.00824933
7.92778e-05
0.00879505
0.00194718
0.011457
0.00627877
0.0103517
0.0144305
0.0084507
-2.43945e-19
0.0084507
-6.23416e-19
0.0084507
-2.71051e-20
0.0084507
-2.71051e-20
0.0084507
2.1684e-19
0.0084507
2.71051e-20
0.0084507
5.93601e-18
0.0084507
2.96258e-17
0.0084507
3.84214e-16
0.0084507
-9.43798e-17
0.0084507
1.5036e-14
0.0084507
9.45341e-14
0.0084507
7.64719e-14
0.0084507
6.41465e-12
0.0084507
4.72356e-11
0.00845071
4.70728e-10
0.00845072
-1.27564e-09
0.00845083
6.64734e-09
0.00845122
2.66991e-07
0.00844011
3.47559e-07
0.0084124
5.06766e-06
0.00827599
8.31237e-05
0.00787824
0.000851975
0.00961982
0.00327054
0.00781012
0.0134527
0.0084507
-6.50521e-19
0.0084507
-4.60786e-19
0.0084507
-1.21973e-18
0.0084507
-1.46367e-18
0.0084507
-1.35525e-18
0.0084507
-2.60209e-18
0.0084507
-2.1684e-18
0.0084507
1.08962e-17
0.0084507
1.13841e-16
0.0084507
-3.65214e-16
0.0084507
5.25041e-15
0.0084507
2.92126e-14
0.0084507
4.79893e-14
0.0084507
1.80221e-12
0.0084507
8.20397e-12
0.0084507
5.22742e-11
0.0084507
1.29628e-10
0.00845068
-2.63104e-10
0.00845054
1.81462e-07
0.00844952
-1.68745e-07
0.0084418
-2.15468e-06
0.00841998
1.41375e-05
0.0083244
0.000210132
0.00921665
0.000666353
0.00531336
0.011501
0.0084507
-4.87891e-19
0.0084507
4.33681e-19
0.0084507
-1.89735e-19
0.0084507
-2.43945e-19
0.0084507
1.6263e-19
0.0084507
-8.67362e-19
0.0084507
-1.49078e-18
0.0084507
3.93023e-18
0.0084507
2.43945e-17
0.0084507
1.33574e-16
0.0084507
1.79961e-15
0.0084507
1.22081e-14
0.0084507
-1.7371e-14
0.0084507
8.81877e-13
0.0084507
4.48253e-12
0.0084507
5.3616e-11
0.0084507
3.50811e-10
0.00845069
1.34783e-09
0.00845077
-1.05593e-08
0.00845028
1.30094e-07
0.0084465
9.9634e-07
0.0084345
-2.36517e-07
0.00838305
8.20932e-05
0.00829408
-0.000282287
0.00269849
0.00952756
0.0084507
-1.0842e-19
0.0084507
4.06576e-19
0.0084507
7.86047e-19
0.0084507
3.25261e-19
0.0084507
3.25261e-19
0.0084507
0
0.0084507
1.19262e-18
0.0084507
3.36103e-18
0.0084507
6.47811e-18
0.0084507
3.83537e-17
0.0084507
5.31232e-16
0.0084507
2.71696e-15
0.0084507
2.58501e-14
0.0084507
2.04553e-13
0.0084507
1.61946e-12
0.0084507
2.01528e-11
0.0084507
1.30375e-10
0.0084507
4.27536e-10
0.00845069
5.25524e-09
0.00845053
4.61038e-08
0.00845043
2.00878e-07
0.00843381
2.7315e-06
0.00851096
1.81497e-05
0.00815163
8.91962e-05
0.000988802
0.00788363
0.0084507
4.60786e-19
0.0084507
2.43945e-19
0.0084507
-8.13152e-20
0.0084507
4.06576e-19
0.0084507
7.86047e-19
0.0084507
6.77626e-19
0.0084507
1.92446e-18
0.0084507
3.1984e-18
0.0084507
4.96022e-18
0.0084507
9.92045e-18
0.0084507
1.38398e-16
0.0084507
1.68672e-15
0.0084507
4.1304e-15
0.0084507
9.90838e-14
0.0084507
5.51129e-13
0.0084507
4.55531e-12
0.0084507
4.09001e-11
0.0084507
1.34959e-10
0.0084507
1.11492e-09
0.00845071
1.33139e-08
0.00845052
9.80692e-08
0.00845067
8.70988e-07
0.00844221
8.31498e-06
0.0084283
6.48568e-06
0.000236062
0.00835457
0.0084507
1.0842e-19
0.0084507
3.25261e-19
0.0084507
2.43945e-19
0.0084507
1.19262e-18
0.0084507
1.38236e-18
0.0084507
1.5992e-18
0.0084507
2.03288e-18
0.0084507
2.76472e-18
0.0084507
3.27971e-18
0.0084507
3.41524e-18
0.0084507
5.99835e-17
0.0084507
5.0822e-16
0.0084507
2.94006e-15
0.0084507
2.01556e-14
0.0084507
2.39418e-13
0.0084507
1.64528e-12
0.0084507
1.836e-11
0.0084507
-3.24942e-11
0.0084507
6.10132e-10
0.0084507
2.60572e-09
0.00845067
2.71857e-08
0.00845074
6.60611e-08
0.00845143
2.80825e-06
0.0084409
-3.85382e-06
8.62071e-05
0.00843131
0.0084507
-2.43945e-19
0.0084507
-3.00927e-35
0.0084507
3.25261e-19
0.0084507
8.67362e-19
0.0084507
7.04731e-19
0.0084507
7.04731e-19
0.0084507
9.48677e-19
0.0084507
1.38236e-18
0.0084507
1.40946e-18
0.0084507
1.95156e-18
0.0084507
1.41759e-17
0.0084507
1.49186e-16
0.0084507
6.48949e-16
0.0084507
-3.87226e-15
0.0084507
8.06994e-14
0.0084507
2.78407e-13
0.0084507
2.25162e-12
0.0084507
2.6056e-11
0.0084507
1.30884e-10
0.0084507
1.35484e-09
0.00845069
8.61698e-09
0.00845062
2.52523e-08
0.00845118
1.47005e-07
0.00843675
2.90467e-06
1.80707e-05
0.00851479
0.0084507
4.06576e-19
0.0084507
6.23416e-19
0.0084507
6.23416e-19
0.0084507
3.79471e-19
0.0084507
-2.40741e-35
0.0084507
-6.23416e-19
0.0084507
-1.0842e-18
0.0084507
-1.38236e-18
0.0084507
-2.24972e-18
0.0084507
-3.46945e-18
0.0084507
1.5992e-18
0.0084507
5.77067e-17
0.0084507
-9.04767e-17
0.0084507
-2.26924e-16
0.0084507
2.28665e-14
0.0084507
7.00211e-14
0.0084507
1.35697e-12
0.0084507
3.55935e-12
0.0084507
2.90309e-11
0.0084507
1.69802e-10
0.0084507
1.98302e-09
0.00845069
1.3566e-08
0.00845067
-1.91124e-07
0.00845127
4.85895e-07
9.64744e-06
0.00844355
0.0084507
1.6263e-19
0.0084507
1.0842e-19
0.0084507
1.89735e-19
0.0084507
-5.42101e-19
0.0084507
-4.33681e-19
0.0084507
-7.58942e-19
0.0084507
-1.16552e-18
0.0084507
-1.49078e-18
0.0084507
-8.94467e-19
0.0084507
-8.67362e-19
0.0084507
7.86047e-19
0.0084507
1.01373e-17
0.0084507
8.32125e-17
0.0084507
-1.02972e-16
0.0084507
7.14224e-15
0.0084507
-1.53521e-14
0.0084507
4.90663e-13
0.0084507
-1.44013e-12
0.0084507
1.24486e-11
0.0084507
-5.77774e-11
0.0084507
6.6979e-10
0.0084507
1.17637e-09
0.00845053
2.13694e-08
0.0084506
-2.10014e-07
4.86444e-06
0.00845135
0.0084507
-2.43945e-19
0.0084507
-7.86047e-19
0.0084507
-3.52366e-19
0.0084507
2.71051e-20
0.0084507
3.79471e-19
0.0084507
6.23416e-19
0.0084507
7.86047e-19
0.0084507
1.24683e-18
0.0084507
2.03288e-18
0.0084507
2.84603e-18
0.0084507
3.95734e-18
0.0084507
6.72205e-18
0.0084507
3.4315e-17
0.0084507
1.8548e-16
0.0084507
1.9128e-15
0.0084507
5.55767e-15
0.0084507
9.20895e-14
0.0084507
2.03697e-13
0.0084507
4.029e-12
0.0084507
1.00866e-11
0.0084507
2.17649e-10
0.0084507
9.1702e-10
0.00845068
6.68988e-09
0.00845
9.34111e-08
7.0599e-07
0.00845524
0.0084507
4.60786e-19
0.0084507
4.06576e-19
0.0084507
6.50521e-19
0.0084507
8.67362e-19
0.0084507
8.67362e-19
0.0084507
4.60786e-19
0.0084507
7.86047e-19
0.0084507
7.04731e-19
0.0084507
1.0842e-19
0.0084507
5.69206e-19
0.0084507
1.13841e-18
0.0084507
1.84314e-18
0.0084507
1.2387e-17
0.0084507
3.52095e-17
0.0084507
6.15339e-16
0.0084507
-1.13692e-15
0.0084507
2.39482e-14
0.0084507
-1.17966e-13
0.0084507
1.63945e-12
0.0084507
-5.09174e-12
0.0084507
7.47082e-11
0.0084507
-2.40493e-11
0.0084507
3.04155e-09
0.00845071
3.0892e-08
3.18298e-07
0.00845083
0.0084507
1.0842e-19
0.0084507
-1.0842e-19
0.0084507
-5.14996e-19
0.0084507
-1.32815e-18
0.0084507
-9.75782e-19
0.0084507
-1.02999e-18
0.0084507
-4.60786e-19
0.0084507
-3.79471e-19
0.0084507
-6.77626e-19
0.0084507
-9.21572e-19
0.0084507
-1.30104e-18
0.0084507
-2.11419e-18
0.0084507
5.42101e-19
0.0084507
8.40257e-18
0.0084507
1.79219e-16
0.0084507
7.23325e-16
0.0084507
1.50197e-15
0.0084507
3.54863e-14
0.0084507
3.50925e-13
0.0084507
2.79488e-13
0.0084507
1.60572e-11
0.0084507
8.12346e-11
0.0084507
5.02483e-10
0.00845072
5.02999e-09
1.74951e-08
0.0084508
0.0084507
-4.06576e-19
0.0084507
-9.75782e-19
0.0084507
-8.40257e-19
0.0084507
-1.32815e-18
0.0084507
-1.43657e-18
0.0084507
-1.35525e-18
0.0084507
-1.32815e-18
0.0084507
-2.1684e-18
0.0084507
-2.54788e-18
0.0084507
-2.62919e-18
0.0084507
-3.27971e-18
0.0084507
-3.14419e-18
0.0084507
-1.70762e-18
0.0084507
-4.79759e-18
0.0084507
6.97413e-17
0.0084507
7.65447e-17
0.0084507
8.75141e-16
0.0084507
7.20317e-15
0.0084507
7.79505e-14
0.0084507
1.34088e-13
0.0084507
4.15139e-12
0.0084507
1.12493e-11
0.0084507
-5.79595e-11
0.00845071
9.43887e-10
8.60198e-09
0.0084507
0.0084507
-1.35525e-19
0.0084507
-2.71051e-19
0.0084507
-1.6263e-19
0.0084507
-2.71051e-20
0.0084507
1.0842e-19
0.0084507
-3.79471e-19
0.0084507
-1.89735e-19
0.0084507
-1.02999e-18
0.0084507
-1.21973e-18
0.0084507
-2.08709e-18
0.0084507
-2.35814e-18
0.0084507
-2.05998e-18
0.0084507
-1.95156e-18
0.0084507
-1.5992e-18
0.0084507
7.58942e-18
0.0084507
2.4503e-17
0.0084507
-8.26433e-17
0.0084507
1.71244e-15
0.0084507
9.01221e-15
0.0084507
8.2823e-14
0.0084507
6.03846e-13
0.0084507
2.51315e-12
0.0084507
2.18076e-11
0.0084507
1.82927e-10
1.20615e-09
0.00845071
0.0084507
2.43945e-19
0.0084507
1.89735e-19
0.0084507
1.6263e-19
0.0084507
1.35525e-19
0.0084507
1.89735e-19
0.0084507
-5.96311e-19
0.0084507
-9.48677e-19
0.0084507
-1.24683e-18
0.0084507
-1.70762e-18
0.0084507
-2.05998e-18
0.0084507
-2.11419e-18
0.0084507
-2.27682e-18
0.0084507
-2.22261e-18
0.0084507
-2.30393e-18
0.0084507
1.11131e-18
0.0084507
1.76183e-18
0.0084507
-2.11962e-17
0.0084507
4.71926e-16
0.0084507
4.12935e-15
0.0084507
2.87861e-14
0.0084507
1.72888e-13
0.0084507
3.80992e-13
0.0084507
3.88963e-12
0.0084507
3.89786e-11
3.15206e-10
0.0084507
0.0084507
1.89735e-19
0.0084507
5.96311e-19
0.0084507
5.42101e-19
0.0084507
5.42101e-19
0.0084507
7.31836e-19
0.0084507
2.71051e-19
0.0084507
-3.79471e-19
0.0084507
-5.69206e-19
0.0084507
-5.42101e-19
0.0084507
-8.67362e-19
0.0084507
-8.40257e-19
0.0084507
-1.81604e-18
0.0084507
-2.35814e-18
0.0084507
-2.76472e-18
0.0084507
-1.95156e-18
0.0084507
-1.35525e-18
0.0084507
1.29833e-17
0.0084507
1.30673e-16
0.0084507
7.30535e-16
0.0084507
1.1465e-14
0.0084507
4.36264e-14
0.0084507
5.07509e-13
0.0084507
2.96216e-12
0.0084507
1.26012e-11
3.46058e-11
0.0084507
0.0084507
7.52316e-36
0.0084507
2.43945e-19
0.0084507
1.89735e-19
0.0084507
5.42101e-20
0.0084507
1.0842e-19
0.0084507
2.71051e-20
0.0084507
5.42101e-19
0.0084507
8.13152e-19
0.0084507
9.48677e-19
0.0084507
-8.13152e-20
0.0084507
-1.6263e-19
0.0084507
-1.5992e-18
0.0084507
-1.87025e-18
0.0084507
-2.46656e-18
0.0084507
-2.24972e-18
0.0084507
-2.03288e-18
0.0084507
1.9597e-17
0.0084507
1.08502e-16
0.0084507
-7.44034e-17
0.0084507
4.11775e-15
0.0084507
9.21626e-15
0.0084507
1.85774e-13
0.0084507
1.153e-12
0.0084507
4.60098e-12
9.67711e-12
0.0084507
0.0084507
-3.52366e-19
0.0084507
-7.58942e-19
0.0084507
-1.68051e-18
0.0084507
-2.03288e-18
0.0084507
-2.41235e-18
0.0084507
-2.62919e-18
0.0084507
-2.11419e-18
0.0084507
-2.24972e-18
0.0084507
-1.92446e-18
0.0084507
-1.6263e-18
0.0084507
-1.0842e-18
0.0084507
-6.77626e-19
0.0084507
-3.25261e-19
0.0084507
-1.35525e-19
0.0084507
-4.06576e-19
0.0084507
-1.11131e-18
0.0084507
3.10082e-17
0.0084507
8.48388e-17
0.0084507
-2.43187e-16
0.0084507
1.7196e-15
0.0084507
-1.02642e-14
0.0084507
-9.94639e-15
0.0084507
2.94658e-13
0.0084507
8.79626e-13
1.59831e-12
0.0084507
0.0084507
0.0084507
0.0084507
0.0084507
0.0084507
0.0084507
0.0084507
0.0084507
0.0084507
0.0084507
0.0084507
0.0084507
0.0084507
0.0084507
0.0084507
0.0084507
0.0084507
0.0084507
0.0084507
0.0084507
0.0084507
0.0084507
0.0084507
0.0084507
0.0084507
0.00296252
0.00464049
-0.000182114
0.00314184
-0.0016616
0.00147919
-0.00192057
0.000259291
-0.0019138
-5.28511e-06
-0.00196847
0.00011938
-0.00246008
0.000560042
-0.0029839
0.000450583
-0.00332332
0.000281842
-0.00346686
0.000141944
-0.0034988
3.16881e-05
-0.00348644
-1.17717e-05
-0.00347045
3.53818e-06
-0.00342266
1.23139e-05
-0.00342476
-2.95126e-06
-0.00350386
3.03765e-05
-0.00357645
4.89866e-05
-0.00362303
4.15947e-05
-0.0036298
6.8861e-06
-0.00362569
2.7123e-06
-0.00362125
-8.00178e-07
-0.00361454
-1.81527e-06
-0.00361549
3.67839e-06
-0.00360769
-5.61726e-07
-0.00360848
2.48963e-06
-0.00361249
-2.55392e-06
-0.00361946
5.36225e-06
-0.00362391
7.6128e-07
-0.00363403
5.11731e-06
-0.00363737
-1.17315e-06
-0.00365975
3.85087e-06
-0.00366502
-5.26418e-06
-0.00368434
-3.51005e-06
-0.00371143
-8.95472e-06
-0.00368702
-3.19173e-05
-0.00363274
-4.76396e-05
-0.00356343
-6.6416e-05
-0.00348537
-8.22742e-05
-0.00330204
-0.000164119
-0.00311369
-0.000184097
-0.00292727
-0.000189976
-0.00270185
-0.00022454
-0.00242034
-0.000269038
-0.00210815
-0.000286931
-0.0017665
-0.000317094
-0.00147946
-0.000277967
-0.00115896
-0.000311221
-0.000748737
-0.000400374
-0.000357525
-0.000387954
6.29311e-05
-0.000417428
0.000473947
-0.000414021
0.000838282
-0.000363723
0.00119988
-0.000361582
0.00154157
-0.000342025
0.00186675
-0.000320724
0.00217629
-0.000306083
0.00246128
-0.000281229
0.00271955
-0.000255995
0.00295906
-0.000235338
0.00318386
-0.000219527
0.0033895
-0.00020264
0.00357597
-0.000184751
0.00374674
-0.000169382
0.00390507
-0.000155912
0.00405006
-0.000142784
0.00418195
-0.00012957
0.00430099
-0.000117213
0.0044096
-0.000106486
0.00450992
-9.7932e-05
0.00460245
-9.00223e-05
0.00468852
-8.36879e-05
0.00476856
-7.77474e-05
0.0048431
-7.27377e-05
0.00491135
-6.70941e-05
0.00497405
-6.19861e-05
0.00503123