/*--------------------------------*- C++ -*----------------------------------*\
| =========                 |                                                 |
| \\      /  F ield         | OpenFOAM: The Open Source CFD Toolbox           |
|  \\    /   O peration     | Version:  v2106                                 |
|   \\  /    A nd           | Website:  www.openfoam.com                      |
|    \\/     M anipulation  |                                                 |
\*---------------------------------------------------------------------------*/
FoamFile
{
    version     2.0;
    format      ascii;
    arch        "LSB;label=32;scalar=64";
    class       volScalarField;
    location    "17";
    object      psi;
}
// * * * * * * * * * * * * * * * * * * * * * * * * * * * * * * * * * * * * * //

dimensions      [0 -2 2 0 0 0 0];

internalField   nonuniform List<scalar> 
5250
(
1.40845
1.40845
1.40845
1.40845
1.40845
1.40845
1.40845
1.40845
1.40844
1.40832
1.40732
1.39854
1.32986
1.05991
0.69163
0.469716
0.584776
0.608165
0.596266
0.597613
0.596758
0.59549
0.596631
0.59764
0.58591
1.40845
1.40845
1.40845
1.40845
1.40845
1.40845
1.40845
1.40845
1.40844
1.40833
1.40735
1.39884
1.33186
1.06478
0.696103
0.46731
0.586295
0.609757
0.597529
0.59867
0.597731
0.596381
0.597513
0.598417
0.586241
1.40845
1.40845
1.40845
1.40845
1.40845
1.40845
1.40845
1.40845
1.40844
1.40833
1.40742
1.39948
1.33626
1.07582
0.706232
0.458979
0.58685
0.611103
0.598759
0.600341
0.599541
0.598193
0.599426
0.60044
0.58806
1.40845
1.40845
1.40845
1.40845
1.40845
1.40845
1.40845
1.40845
1.40844
1.40834
1.40749
1.40029
1.34251
1.09256
0.720808
0.457562
0.582093
0.60929
0.598022
0.600543
0.600296
0.599751
0.601463
0.602865
0.590451
1.40845
1.40845
1.40845
1.40845
1.40845
1.40845
1.40845
1.40845
1.40844
1.40836
1.40761
1.40134
1.35017
1.11454
0.74074
0.45714
0.575471
0.605223
0.595702
0.599734
0.600583
0.601536
0.604036
0.605918
0.593823
1.40845
1.40845
1.40845
1.40845
1.40845
1.40845
1.40845
1.40845
1.40844
1.40838
1.40782
1.40291
1.35883
1.14122
0.765987
0.453471
0.564388
0.597922
0.591238
0.597026
0.599721
0.601948
0.606294
0.609979
0.598619
1.40845
1.40845
1.40845
1.40845
1.40845
1.40845
1.40845
1.40845
1.40844
1.4084
1.40796
1.40403
1.36711
1.17021
0.798153
0.449009
0.549286
0.586277
0.584063
0.592299
0.598098
0.603257
0.610549
0.614559
0.605291
1.40845
1.40845
1.40845
1.40845
1.40845
1.40845
1.40845
1.40845
1.40845
1.40841
1.40802
1.4046
1.37386
1.19701
0.833069
0.45658
0.545609
0.576702
0.576543
0.585847
0.594825
0.603358
0.612635
0.621888
0.616117
1.40845
1.40845
1.40845
1.40845
1.40845
1.40845
1.40845
1.40845
1.40845
1.40841
1.40811
1.4054
1.38075
1.22735
0.873262
0.473346
0.551228
0.567181
0.568461
0.575723
0.588022
0.602493
0.619388
0.629538
0.634331
1.40845
1.40845
1.40845
1.40845
1.40845
1.40845
1.40845
1.40845
1.40845
1.40842
1.40818
1.40603
1.38615
1.25398
0.918813
0.497475
0.566635
0.567749
0.569605
0.574589
0.584349
0.598924
0.621825
0.639115
0.678228
1.40845
1.40845
1.40845
1.40845
1.40845
1.40845
1.40845
1.40845
1.40845
1.40842
1.40822
1.40634
1.39052
1.28863
0.972807
0.525167
0.557867
0.581687
0.580119
0.577847
0.584746
0.600616
0.629646
0.672964
0.779665
1.40845
1.40845
1.40845
1.40845
1.40845
1.40845
1.40845
1.40845
1.40845
1.40843
1.40831
1.40717
1.3978
1.3241
1.03326
0.571289
0.544412
0.59911
0.597035
0.587752
0.588673
0.600294
0.627496
0.666945
0.812717
1.40845
1.40845
1.40845
1.40845
1.40845
1.40845
1.40845
1.40845
1.40845
1.40844
1.40838
1.40781
1.4025
1.35101
1.11514
0.728645
0.518931
0.627637
0.620144
0.603835
0.597985
0.603781
0.62773
0.659912
0.794883
1.40845
1.40845
1.40845
1.40845
1.40845
1.40845
1.40845
1.40845
1.40845
1.40844
1.4084
1.40796
1.40408
1.36977
1.18024
0.810009
0.487683
0.622256
0.631849
0.622208
0.611027
0.613653
0.631403
0.660882
0.763738
1.40845
1.40845
1.40845
1.40845
1.40845
1.40845
1.40845
1.40845
1.40845
1.40845
1.40842
1.40813
1.40562
1.38281
1.23853
0.893193
0.488364
0.611806
0.629406
0.636378
0.628728
0.627426
0.637877
0.661327
0.725901
1.40845
1.40845
1.40845
1.40845
1.40845
1.40845
1.40845
1.40845
1.40845
1.40845
1.40843
1.40824
1.40664
1.39253
1.29607
0.983216
0.514588
0.570934
0.637819
0.66046
0.65516
0.645624
0.649241
0.6656
0.706671
1.40845
1.40845
1.40845
1.40845
1.40845
1.40845
1.40845
1.40845
1.40845
1.40845
1.40844
1.40837
1.40766
1.40143
1.34883
1.09179
0.624592
0.528208
0.628004
0.658092
0.658785
0.657449
0.661679
0.673984
0.703164
1.40845
1.40845
1.40845
1.40845
1.40845
1.40845
1.40845
1.40845
1.40845
1.40845
1.40844
1.4084
1.40796
1.40419
1.37156
1.18797
0.818982
0.498732
0.624389
0.641603
0.664148
0.667166
0.673363
0.684738
0.706621
1.40845
1.40845
1.40845
1.40845
1.40845
1.40845
1.40845
1.40845
1.40845
1.40845
1.40845
1.40842
1.40817
1.40607
1.38803
1.2709
0.936566
0.508916
0.595512
0.64312
0.673683
0.680807
0.687968
0.698443
0.715341
1.40845
1.40845
1.40845
1.40845
1.40845
1.40845
1.40845
1.40845
1.40845
1.40845
1.40845
1.40844
1.40834
1.40742
1.39951
1.33435
1.05021
0.564733
0.55535
0.64168
0.681736
0.685159
0.691318
0.702353
0.719567
1.40845
1.40845
1.40845
1.40845
1.40845
1.40845
1.40845
1.40845
1.40845
1.40845
1.40845
1.40844
1.40839
1.4079
1.40388
1.37171
1.19914
0.798223
0.509472
0.632861
0.661135
0.69014
0.697712
0.707494
0.722861
1.40845
1.40845
1.40845
1.40845
1.40845
1.40845
1.40845
1.40845
1.40845
1.40845
1.40845
1.40844
1.4084
1.40833
1.40673
1.39432
1.29912
0.938498
0.532988
0.590106
0.662825
0.696672
0.705794
0.715692
0.728652
1.40845
1.40845
1.40845
1.40845
1.40845
1.40845
1.40845
1.40845
1.40845
1.40845
1.40845
1.40845
1.40844
1.40834
1.40758
1.4014
1.35456
1.13753
0.672318
0.535601
0.657657
0.677831
0.702711
0.716941
0.732339
1.40845
1.40845
1.40845
1.40845
1.40845
1.40845
1.40845
1.40845
1.40845
1.40845
1.40845
1.40845
1.40844
1.40835
1.40832
1.40625
1.39098
1.27878
0.86958
0.532301
0.622878
0.676961
0.706465
0.71895
0.733428
1.40845
1.40845
1.40845
1.40845
1.40845
1.40845
1.40845
1.40845
1.40845
1.40845
1.40845
1.40845
1.40845
1.40843
1.4083
1.40728
1.39921
1.33948
1.08593
0.574831
0.572373
0.673581
0.698458
0.718709
0.734469
1.40845
1.40845
1.40845
1.40845
1.40845
1.40845
1.40845
1.40845
1.40845
1.40845
1.40845
1.40845
1.40845
1.40844
1.40836
1.40827
1.406
1.38894
1.26554
0.806157
0.525041
0.635743
0.68834
0.720582
0.735075
1.40845
1.40845
1.40845
1.40845
1.40845
1.40845
1.40845
1.40845
1.40845
1.40845
1.40845
1.40845
1.40845
1.40845
1.40843
1.40828
1.40711
1.39824
1.33324
1.06588
0.568082
0.581344
0.681975
0.710536
0.731588
1.40845
1.40845
1.40845
1.40845
1.40845
1.40845
1.40845
1.40845
1.40845
1.40845
1.40845
1.40845
1.40845
1.40845
1.40844
1.40831
1.40831
1.40601
1.38854
1.267
0.80304
0.528975
0.638525
0.694557
0.730262
1.40845
1.40845
1.40845
1.40845
1.40845
1.40845
1.40845
1.40845
1.40845
1.40845
1.40845
1.40845
1.40845
1.40845
1.40845
1.40843
1.40828
1.40714
1.39876
1.33629
1.06739
0.575851
0.5847
0.687958
0.71138
1.40845
1.40845
1.40845
1.40845
1.40845
1.40845
1.40845
1.40845
1.40845
1.40845
1.40845
1.40845
1.40845
1.40845
1.40845
1.40844
1.40838
1.40853
1.4065
1.38883
1.27123
0.8343
0.543797
0.638737
0.705387
1.40845
1.40845
1.40845
1.40845
1.40845
1.40845
1.40845
1.40845
1.40845
1.40845
1.40845
1.40845
1.40845
1.40845
1.40845
1.40845
1.40844
1.40832
1.40739
1.40016
1.34455
1.09202
0.621725
0.582105
0.687243
1.40845
1.40845
1.40845
1.40845
1.40845
1.40845
1.40845
1.40845
1.40845
1.40845
1.40845
1.40845
1.40845
1.40845
1.40845
1.40845
1.40845
1.40847
1.40887
1.40735
1.39322
1.29177
0.897788
0.565027
0.624971
1.40845
1.40845
1.40845
1.40845
1.40845
1.40845
1.40845
1.40845
1.40845
1.40845
1.40845
1.40845
1.40845
1.40845
1.40845
1.40845
1.40845
1.40844
1.40834
1.40756
1.40166
1.35705
1.12669
0.672906
0.573121
1.40845
1.40845
1.40845
1.40845
1.40845
1.40845
1.40845
1.40845
1.40845
1.40845
1.40845
1.40845
1.40845
1.40845
1.40845
1.40845
1.40845
1.40845
1.40842
1.40834
1.40733
1.39677
1.31807
1.03506
0.614253
1.40845
1.40845
1.40845
1.40845
1.40845
1.40845
1.40845
1.40845
1.40845
1.40845
1.40845
1.40845
1.40845
1.40845
1.40845
1.40845
1.40845
1.40845
1.40844
1.40837
1.40774
1.40048
1.40112
1.3132
0.837375
1.40845
1.40845
1.40845
1.40845
1.40845
1.40845
1.40845
1.40845
1.40845
1.40845
1.40845
1.40845
1.40845
1.40845
1.40845
1.40845
1.40845
1.40845
1.40845
1.40843
1.40832
1.40738
1.4006
1.35106
1.09934
1.40845
1.40845
1.40845
1.40845
1.40845
1.40845
1.40845
1.40845
1.40845
1.40845
1.40845
1.40845
1.40845
1.40845
1.40845
1.40845
1.40845
1.40845
1.40845
1.40844
1.4084
1.4081
1.40645
1.39706
1.31446
1.40845
1.40845
1.40845
1.40845
1.40845
1.40845
1.40845
1.40845
1.40845
1.40845
1.40845
1.40845
1.40845
1.40845
1.40845
1.40845
1.40845
1.40845
1.40845
1.40845
1.40844
1.40836
1.40778
1.4023
1.40558
1.40845
1.40845
1.40845
1.40845
1.40845
1.40845
1.40845
1.40845
1.40845
1.40845
1.40845
1.40845
1.40845
1.40845
1.40845
1.40845
1.40845
1.40845
1.40845
1.40845
1.40845
1.40843
1.40829
1.40743
1.40172
1.40845
1.40845
1.40845
1.40845
1.40845
1.40845
1.40845
1.40845
1.40845
1.40845
1.40845
1.40845
1.40845
1.40845
1.40845
1.40845
1.40845
1.40845
1.40845
1.40845
1.40845
1.40845
1.40842
1.40815
1.40674
1.40845
1.40845
1.40845
1.40845
1.40845
1.40845
1.40845
1.40845
1.40845
1.40845
1.40845
1.40845
1.40845
1.40845
1.40845
1.40845
1.40845
1.40845
1.40845
1.40845
1.40845
1.40845
1.40842
1.40811
1.40814
1.40845
1.40845
1.40845
1.40845
1.40845
1.40845
1.40845
1.40845
1.40845
1.40845
1.40845
1.40845
1.40845
1.40845
1.40845
1.40845
1.40845
1.40845
1.40845
1.40845
1.40845
1.40845
1.40845
1.40843
1.40832
1.40845
1.40845
1.40845
1.40845
1.40845
1.40845
1.40845
1.40845
1.40845
1.40845
1.40845
1.40845
1.40845
1.40845
1.40845
1.40845
1.40845
1.40845
1.40845
1.40845
1.40845
1.40845
1.40845
1.40844
1.40841
1.40845
1.40845
1.40845
1.40845
1.40845
1.40845
1.40845
1.40845
1.40845
1.40845
1.40845
1.40845
1.40845
1.40845
1.40845
1.40845
1.40845
1.40845
1.40845
1.40845
1.40845
1.40845
1.40845
1.40845
1.40845
1.40845
1.40845
1.40845
1.40845
1.40845
1.40845
1.40845
1.40845
1.40845
1.40845
1.40845
1.40845
1.40845
1.40845
1.40845
1.40845
1.40845
1.40845
1.40845
1.40845
1.40845
1.40845
1.40845
1.40845
1.40845
1.40845
1.40845
1.40845
1.40845
1.40845
1.40845
1.40845
1.40845
1.40845
1.40845
1.40845
1.40845
1.40845
1.40845
1.40845
1.40845
1.40845
1.40845
1.40845
1.40845
1.40845
1.40845
1.40845
1.40845
1.40845
1.40845
1.40845
1.40845
1.40845
1.40845
1.40845
1.40845
1.40845
1.40845
1.40845
1.40845
1.40845
1.40845
1.40845
1.40845
1.40845
1.40845
1.40845
1.40845
1.40845
1.40845
1.40845
1.40845
1.40845
1.40845
1.40845
1.40845
1.40845
1.40845
1.40845
1.40845
1.40845
1.40845
1.40845
1.40845
1.40845
1.40845
1.40845
1.40845
1.40845
1.40845
1.40845
1.40845
1.40845
1.40845
1.40845
1.40845
1.40845
1.40845
1.40845
1.40845
1.40845
1.40845
1.40845
1.40845
1.40845
1.40845
1.40845
1.40845
1.40845
1.40845
1.40845
1.40845
1.40845
1.40845
1.40845
1.40845
1.40845
1.40845
1.40845
1.40845
1.40845
1.40845
1.40845
1.40845
1.40845
1.40845
1.40845
1.40845
1.40845
1.40845
1.40845
1.40845
1.40845
1.40845
1.40845
1.40845
1.40845
1.40845
1.40845
1.40845
1.40845
1.40845
1.40845
1.40845
1.40845
1.40845
1.40845
1.40845
1.40845
0.7014
0.618835
0.501196
0.508477
0.512438
0.503478
0.495734
0.498707
0.53514
0.549841
0.551874
0.551157
0.550732
0.546964
0.543562
0.559806
0.573273
0.579449
0.580616
0.579588
0.578207
0.577589
0.577298
0.577518
0.577366
0.579413
0.581426
0.582578
0.583564
0.584247
0.58453
0.585943
0.584921
0.584562
0.583065
0.572247
0.563569
0.555709
0.547607
0.536578
0.529602
0.523932
0.517458
0.511036
0.504547
0.49985
0.498272
0.497239
0.495303
0.49494
0.491598
0.493525
0.495459
0.497577
0.500097
0.502248
0.504752
0.507344
0.510011
0.512814
0.515467
0.517977
0.520485
0.523122
0.525694
0.528322
0.530794
0.533207
0.535607
0.537984
0.540347
0.542655
0.544989
0.547213
0.549449
0.551612
0.5538
0.555926
0.558073
0.560135
0.562223
0.564224
0.566266
0.568223
0.570218
0.572098
0.573999
0.575745
0.577504
0.579088
0.580707
0.582223
0.583822
0.58542
0.58707
0.58881
0.590591
0.593432
0.59373
0.592398
0.682394
0.629899
0.57887
0.528911
0.513005
0.494206
0.473567
0.451538
0.484333
0.495658
0.497267
0.48771
0.486441
0.482122
0.481258
0.494612
0.501174
0.504571
0.504292
0.503606
0.502869
0.502229
0.502034
0.502205
0.501817
0.502548
0.504086
0.505289
0.506544
0.50704
0.507256
0.508213
0.507142
0.505948
0.506588
0.499631
0.494478
0.490736
0.486803
0.482282
0.479694
0.479453
0.480721
0.477168
0.474519
0.478101
0.480899
0.483148
0.487943
0.492598
0.498798
0.505622
0.512507
0.518366
0.523852
0.529385
0.535648
0.541523
0.546062
0.550485
0.555337
0.559926
0.563776
0.567707
0.571309
0.574871
0.578271
0.581503
0.584794
0.588021
0.591294
0.594366
0.597435
0.600337
0.603275
0.605976
0.608666
0.611136
0.613608
0.615925
0.618258
0.620476
0.622716
0.624921
0.627162
0.629376
0.631639
0.633776
0.635924
0.637789
0.639602
0.641175
0.642786
0.644382
0.646028
0.647779
0.649711
0.652623
0.653605
0.652128
0.751625
0.694785
0.64394
0.578387
0.548585
0.528546
0.515412
0.48697
0.466732
0.465839
0.463201
0.46616
0.472843
0.465413
0.457719
0.450163
0.466261
0.472385
0.472944
0.473479
0.470699
0.469385
0.468759
0.469211
0.469305
0.470387
0.472225
0.472327
0.472349
0.472488
0.472039
0.473599
0.472673
0.471984
0.472891
0.468305
0.464231
0.46384
0.451457
0.454148
0.458898
0.463789
0.469794
0.478316
0.490873
0.506802
0.519797
0.530968
0.542295
0.552017
0.561707
0.570028
0.579188
0.585825
0.59107
0.596503
0.602307
0.607645
0.612325
0.616493
0.621051
0.625998
0.630254
0.634311
0.638058
0.641567
0.644573
0.64746
0.650415
0.653486
0.656661
0.659879
0.663084
0.665987
0.668697
0.671226
0.673686
0.676092
0.678519
0.680898
0.683315
0.685565
0.687803
0.689906
0.692011
0.694074
0.696152
0.698218
0.700304
0.702414
0.704635
0.706783
0.708885
0.710765
0.71247
0.714148
0.71593
0.718723
0.719068
0.716791
0.808355
0.778753
0.740178
0.678163
0.618908
0.57753
0.57024
0.551999
0.523582
0.496323
0.484329
0.47531
0.475671
0.478813
0.478349
0.465416
0.460294
0.460097
0.458922
0.46
0.461386
0.468208
0.471944
0.470842
0.470559
0.470612
0.470403
0.471168
0.472776
0.473479
0.47256
0.47341
0.468776
0.465286
0.45699
0.450569
0.452062
0.454669
0.463377
0.48075
0.506024
0.526996
0.541158
0.555306
0.569537
0.580856
0.593399
0.606349
0.611945
0.621221
0.626344
0.631645
0.637564
0.641866
0.646697
0.651636
0.656822
0.660236
0.663685
0.666544
0.669811
0.673832
0.678245
0.682112
0.685966
0.689213
0.692043
0.694646
0.697214
0.699828
0.702565
0.705461
0.70849
0.71157
0.714721
0.717572
0.720139
0.72247
0.724647
0.726728
0.728805
0.73092
0.733119
0.735387
0.73766
0.739788
0.741853
0.743805
0.745678
0.747553
0.749484
0.751521
0.753693
0.756014
0.758353
0.760454
0.762619
0.765795
0.766587
0.763827
0.799957
0.807172
0.789546
0.752155
0.70984
0.662302
0.638273
0.642221
0.611888
0.575199
0.541657
0.519691
0.504527
0.50208
0.502223
0.499138
0.491424
0.482716
0.476391
0.470381
0.467516
0.468285
0.470075
0.471022
0.472169
0.472839
0.471673
0.471826
0.472428
0.473151
0.474218
0.47182
0.468726
0.464691
0.465262
0.472083
0.487222
0.512269
0.537146
0.560087
0.587044
0.59819
0.614001
0.625882
0.640401
0.647985
0.658762
0.664848
0.666772
0.67323
0.674814
0.677354
0.681317
0.684237
0.688032
0.691785
0.694405
0.696251
0.69854
0.701622
0.705125
0.708863
0.712534
0.715539
0.718329
0.721264
0.724226
0.726915
0.729455
0.73205
0.73473
0.737488
0.740357
0.743238
0.745932
0.748586
0.75122
0.753826
0.756472
0.759035
0.761341
0.763429
0.765494
0.76752
0.769537
0.771543
0.773546
0.775529
0.777514
0.779474
0.781452
0.783477
0.78555
0.7877
0.789928
0.792215
0.794651
0.797952
0.79982
0.797015
0.771531
0.813553
0.812206
0.79605
0.770676
0.741519
0.717807
0.717991
0.689581
0.651398
0.617836
0.592186
0.568021
0.555294
0.551196
0.54384
0.533258
0.52128
0.511876
0.502552
0.493868
0.488612
0.484794
0.482479
0.480552
0.479896
0.47873
0.478348
0.477386
0.47588
0.475627
0.474378
0.477045
0.484171
0.497164
0.520494
0.552364
0.591788
0.620641
0.642858
0.66155
0.670755
0.682173
0.689432
0.698951
0.700671
0.703795
0.704829
0.711389
0.712738
0.70819
0.708915
0.713056
0.716205
0.718206
0.719946
0.720816
0.722199
0.724263
0.727221
0.730785
0.733127
0.735299
0.738072
0.741252
0.744699
0.747401
0.749751
0.751908
0.754146
0.756561
0.759131
0.761744
0.764343
0.767086
0.770008
0.773113
0.776283
0.779054
0.781398
0.783523
0.785589
0.787626
0.78965
0.791678
0.793728
0.795812
0.797942
0.799929
0.801869
0.803815
0.805798
0.807824
0.80993
0.812125
0.814438
0.816987
0.820292
0.822962
0.820113
0.743616
0.795241
0.811582
0.8156
0.802118
0.788115
0.7844
0.790423
0.783674
0.758117
0.721936
0.694306
0.667104
0.645077
0.626022
0.61538
0.600385
0.584565
0.568792
0.556413
0.542876
0.532879
0.523186
0.515864
0.5084
0.50396
0.497991
0.495342
0.491699
0.486711
0.487175
0.490201
0.497864
0.515873
0.550265
0.603499
0.648132
0.688118
0.712665
0.739074
0.745107
0.748337
0.748132
0.743738
0.73797
0.726537
0.720953
0.730097
0.740734
0.739818
0.739092
0.737712
0.735675
0.736061
0.736637
0.738421
0.740181
0.742169
0.743655
0.74444
0.745697
0.74867
0.751413
0.754072
0.756934
0.759491
0.761724
0.763691
0.765751
0.767962
0.770363
0.772924
0.7757
0.778684
0.781669
0.784348
0.786877
0.789359
0.791858
0.794312
0.796666
0.799013
0.801359
0.803712
0.806045
0.808219
0.810324
0.812362
0.814298
0.816251
0.818239
0.820284
0.822391
0.824578
0.826849
0.829217
0.831788
0.834902
0.837915
0.835029
0.735205
0.770348
0.800023
0.813495
0.807265
0.808653
0.810809
0.824389
0.835328
0.827174
0.802271
0.773717
0.749908
0.727635
0.706263
0.704556
0.695641
0.677904
0.655918
0.637676
0.615304
0.601675
0.586669
0.575064
0.562036
0.551995
0.539891
0.531117
0.51955
0.514334
0.508118
0.519731
0.54224
0.581804
0.643825
0.700477
0.738846
0.767648
0.789447
0.810524
0.818844
0.820025
0.81935
0.814256
0.806582
0.790694
0.769939
0.747293
0.737637
0.746435
0.758458
0.761148
0.759687
0.754574
0.748372
0.7493
0.7516
0.754101
0.755131
0.755642
0.756481
0.75852
0.761948
0.764015
0.766136
0.767641
0.769226
0.771052
0.773345
0.776083
0.779381
0.78225
0.784611
0.786986
0.789397
0.791856
0.794391
0.797004
0.799565
0.802036
0.804414
0.806771
0.809121
0.811491
0.813844
0.816115
0.818297
0.820426
0.822488
0.824567
0.826669
0.8288
0.830964
0.833171
0.835431
0.837762
0.840281
0.84333
0.846538
0.843669
0.737544
0.758731
0.785566
0.799009
0.809493
0.811134
0.817777
0.834135
0.852304
0.866514
0.860036
0.843525
0.822756
0.806583
0.793436
0.783908
0.779672
0.768553
0.750937
0.730925
0.712478
0.692487
0.675216
0.6587
0.642369
0.626714
0.609613
0.594022
0.567799
0.548587
0.550313
0.573027
0.609351
0.668604
0.738974
0.776643
0.803176
0.820644
0.839295
0.857889
0.867499
0.873277
0.875878
0.87449
0.86949
0.853655
0.83442
0.81244
0.782091
0.740135
0.748212
0.76825
0.768191
0.768029
0.765984
0.76134
0.758908
0.7606
0.761553
0.763557
0.764191
0.765352
0.767888
0.770431
0.771339
0.772743
0.77464
0.776812
0.779291
0.782066
0.785147
0.787825
0.78971
0.791778
0.794038
0.796472
0.799026
0.801626
0.804118
0.806548
0.808964
0.811374
0.813778
0.816214
0.818556
0.820762
0.822867
0.824957
0.827024
0.829113
0.831238
0.833418
0.835646
0.837908
0.840193
0.842526
0.84503
0.848062
0.851301
0.848386
0.743276
0.757853
0.779946
0.786672
0.80537
0.808589
0.816626
0.831989
0.850054
0.870565
0.881341
0.875325
0.865872
0.858024
0.849466
0.839186
0.843501
0.841912
0.83289
0.817633
0.800246
0.784112
0.768092
0.752334
0.737334
0.721796
0.701469
0.679035
0.635813
0.586558
0.60879
0.638676
0.681661
0.750409
0.792496
0.816027
0.840153
0.860116
0.877001
0.889805
0.89568
0.903791
0.911226
0.912091
0.910128
0.901602
0.892145
0.874062
0.845484
0.813354
0.777429
0.742207
0.755952
0.771254
0.776808
0.774912
0.77173
0.766307
0.76663
0.768467
0.771699
0.771795
0.772483
0.774647
0.775741
0.776882
0.778736
0.781461
0.7846
0.787222
0.789647
0.79201
0.794179
0.796384
0.79867
0.801108
0.803588
0.805997
0.808406
0.810855
0.813292
0.815675
0.817944
0.820074
0.822106
0.824138
0.82619
0.828292
0.830449
0.832683
0.834992
0.837338
0.839599
0.841874
0.844181
0.846547
0.8491
0.852201
0.855572
0.852624
0.745123
0.75961
0.775186
0.784921
0.800587
0.804072
0.812542
0.826883
0.845834
0.865502
0.884505
0.890365
0.887371
0.879856
0.876507
0.875405
0.877937
0.881023
0.880153
0.874073
0.863015
0.848875
0.836588
0.823585
0.809521
0.793059
0.769672
0.731621
0.659928
0.627785
0.656783
0.687633
0.732632
0.785415
0.811959
0.837818
0.863289
0.880874
0.896974
0.908922
0.916384
0.924417
0.925886
0.928305
0.931122
0.930969
0.928542
0.918215
0.902824
0.881266
0.849004
0.809297
0.753753
0.754039
0.770008
0.773985
0.779591
0.779108
0.777679
0.776147
0.776391
0.776918
0.778055
0.78109
0.782848
0.783416
0.784412
0.786481
0.789823
0.792767
0.794984
0.797137
0.799343
0.801685
0.804211
0.806649
0.808812
0.810946
0.813102
0.815357
0.81778
0.820176
0.822212
0.824165
0.826124
0.828111
0.83014
0.832244
0.834429
0.836698
0.839034
0.841405
0.843761
0.846131
0.848527
0.850978
0.853624
0.856831
0.86033
0.857245
0.747297
0.763022
0.77708
0.786408
0.798531
0.801259
0.808897
0.821605
0.839152
0.857271
0.87779
0.891488
0.896551
0.894874
0.893091
0.893254
0.895006
0.900759
0.909568
0.907855
0.903576
0.895108
0.885409
0.875511
0.862847
0.843238
0.809629
0.746569
0.645591
0.67227
0.69746
0.728869
0.772045
0.793912
0.816006
0.839482
0.858403
0.878524
0.894346
0.907588
0.921809
0.932524
0.941254
0.93949
0.939987
0.942767
0.942899
0.942737
0.938965
0.930053
0.910722
0.88355
0.845501
0.800655
0.743268
0.75601
0.772559
0.790628
0.790214
0.788653
0.784628
0.786042
0.786308
0.78722
0.789108
0.790985
0.792449
0.79392
0.796208
0.799491
0.802365
0.804811
0.807015
0.809207
0.811467
0.813448
0.815471
0.817614
0.81989
0.822328
0.825027
0.827054
0.828554
0.830131
0.831829
0.833658
0.835603
0.837666
0.839827
0.842075
0.844378
0.846716
0.849084
0.851486
0.853913
0.856401
0.859084
0.862332
0.865914
0.862699
0.75055
0.765074
0.77921
0.788471
0.798632
0.80228
0.80915
0.818254
0.830996
0.848234
0.869061
0.883877
0.894026
0.901271
0.900469
0.899596
0.902972
0.910636
0.916474
0.922086
0.926461
0.922847
0.915672
0.90844
0.892983
0.863726
0.807041
0.722311
0.669734
0.704231
0.725519
0.750958
0.776747
0.796113
0.816755
0.83313
0.851023
0.866576
0.879502
0.893069
0.90702
0.915195
0.923788
0.933949
0.946961
0.953749
0.951931
0.951869
0.953288
0.953487
0.947718
0.937231
0.914413
0.880454
0.837788
0.783217
0.760431
0.778714
0.786013
0.799804
0.796727
0.796325
0.793157
0.794697
0.796575
0.797706
0.799502
0.801931
0.803509
0.805509
0.808159
0.811189
0.814442
0.81659
0.818617
0.820499
0.822315
0.824173
0.826157
0.828323
0.830429
0.83231
0.834213
0.836171
0.838173
0.840215
0.842284
0.844394
0.846539
0.848715
0.850919
0.853148
0.855413
0.857721
0.860072
0.862503
0.865159
0.868423
0.872131
0.868735
0.750635
0.766806
0.780229
0.791888
0.800742
0.805433
0.810534
0.817708
0.827737
0.841769
0.85732
0.8761
0.886696
0.897769
0.904581
0.904175
0.906614
0.910083
0.916051
0.924877
0.934321
0.931344
0.924681
0.916608
0.894592
0.845692
0.766536
0.671086
0.705198
0.720891
0.737608
0.756444
0.773295
0.789797
0.805023
0.821068
0.836709
0.85028
0.864543
0.878213
0.889516
0.900902
0.913292
0.927642
0.937145
0.941348
0.950072
0.960619
0.963061
0.961315
0.962698
0.965226
0.95868
0.94435
0.915815
0.877571
0.829346
0.760506
0.768303
0.790588
0.798279
0.808107
0.80555
0.805309
0.803888
0.803944
0.804508
0.807749
0.809968
0.811474
0.813242
0.815444
0.818143
0.821264
0.823088
0.824735
0.826394
0.828115
0.829983
0.832133
0.834751
0.83751
0.839741
0.842059
0.844332
0.846587
0.848812
0.851021
0.853252
0.855537
0.857872
0.860275
0.862745
0.865291
0.867783
0.870268
0.872892
0.876059
0.879616
0.875879
0.751515
0.767718
0.78108
0.791289
0.802408
0.808721
0.81322
0.819807
0.828447
0.839853
0.852344
0.868744
0.87955
0.888104
0.901395
0.904613
0.904437
0.908213
0.914562
0.922497
0.933049
0.932276
0.925112
0.908897
0.871374
0.798726
0.680943
0.697704
0.727451
0.736467
0.746892
0.758307
0.77087
0.784687
0.799566
0.813983
0.827382
0.840251
0.853237
0.865057
0.876478
0.888864
0.903462
0.912307
0.919696
0.930279
0.943528
0.950187
0.958747
0.967966
0.976672
0.97869
0.975951
0.976083
0.965063
0.943911
0.909239
0.862701
0.814086
0.763331
0.777612
0.792778
0.817864
0.813506
0.811281
0.807177
0.807705
0.809083
0.811854
0.814922
0.817866
0.819824
0.821776
0.823769
0.825998
0.827962
0.829504
0.831175
0.832958
0.834883
0.837047
0.839551
0.842419
0.844769
0.847052
0.849289
0.851556
0.853879
0.856291
0.858799
0.861356
0.863859
0.866395
0.868976
0.871607
0.874309
0.877207
0.880718
0.884887
0.88123
0.751309
0.767656
0.781833
0.790632
0.801274
0.809401
0.814673
0.820908
0.82884
0.839169
0.85178
0.863854
0.878059
0.88504
0.895912
0.904553
0.903599
0.905778
0.911149
0.921043
0.92648
0.92263
0.915747
0.885641
0.821242
0.704247
0.705361
0.734213
0.738199
0.744097
0.751243
0.759561
0.769449
0.780574
0.792965
0.806008
0.818117
0.83024
0.842377
0.853984
0.866194
0.879806
0.89018
0.898393
0.909596
0.922422
0.930356
0.940281
0.951636
0.963355
0.974259
0.984898
0.98378
0.986183
0.982174
0.976407
0.964581
0.938361
0.900904
0.851183
0.779318
0.780319
0.805065
0.807634
0.822695
0.820557
0.817674
0.813481
0.814381
0.816116
0.81823
0.821104
0.824615
0.82581
0.827173
0.828985
0.831088
0.832571
0.834194
0.835969
0.838065
0.840489
0.843286
0.846424
0.848974
0.851295
0.853694
0.85621
0.858701
0.861064
0.863448
0.865841
0.86831
0.870927
0.8737
0.876591
0.879683
0.883409
0.8881
0.884501
0.750044
0.767355
0.783093
0.791258
0.800036
0.810322
0.815789
0.82149
0.828885
0.837985
0.849823
0.861623
0.874853
0.884573
0.893468
0.904071
0.904555
0.906061
0.913394
0.915901
0.914146
0.909438
0.887135
0.835491
0.74473
0.708454
0.734234
0.743081
0.747464
0.751174
0.755373
0.761007
0.768405
0.777612
0.787805
0.798863
0.810594
0.82212
0.833765
0.845314
0.858736
0.870111
0.878061
0.889507
0.902707
0.910986
0.92138
0.932379
0.945034
0.95598
0.962364
0.970359
0.98056
0.990898
0.99176
0.989112
0.989144
0.981564
0.964637
0.932188
0.892252
0.844609
0.776826
0.785873
0.803611
0.817441
0.828051
0.824398
0.823855
0.82268
0.82292
0.824193
0.827571
0.831859
0.832469
0.833203
0.834509
0.836195
0.837935
0.839826
0.84204
0.844504
0.847128
0.849586
0.852041
0.854326
0.856685
0.859136
0.86145
0.863734
0.866057
0.868467
0.871007
0.873689
0.876509
0.879444
0.882596
0.886442
0.891426
0.887599
0.74654
0.764502
0.781738
0.792419
0.799072
0.809891
0.816553
0.821347
0.828336
0.836906
0.847694
0.858325
0.869771
0.882123
0.893294
0.902611
0.905319
0.911919
0.911425
0.908739
0.903904
0.886436
0.84049
0.769217
0.704207
0.731558
0.741337
0.750368
0.752437
0.754554
0.757165
0.761189
0.76709
0.774912
0.784016
0.79386
0.80452
0.815614
0.826691
0.838462
0.850813
0.859321
0.870861
0.884961
0.892083
0.902618
0.915348
0.924799
0.934842
0.943717
0.953652
0.962789
0.972609
0.980033
0.98936
0.996438
0.997617
0.994465
0.994326
0.983267
0.964611
0.931065
0.880838
0.828594
0.784305
0.801078
0.811796
0.835171
0.833424
0.830157
0.82705
0.827423
0.828507
0.831759
0.836054
0.838004
0.838675
0.839734
0.841027
0.842603
0.844985
0.848061
0.851823
0.854621
0.856708
0.858801
0.860902
0.862993
0.865106
0.867243
0.86948
0.87189
0.874546
0.87745
0.880576
0.883692
0.886812
0.890549
0.895343
0.891175
0.740866
0.759869
0.78043
0.794826
0.79959
0.808254
0.817601
0.820615
0.826726
0.835133
0.845735
0.854708
0.86457
0.876691
0.89129
0.900002
0.910832
0.909986
0.904907
0.900288
0.887455
0.847419
0.777056
0.697763
0.725171
0.737936
0.753749
0.754263
0.75521
0.757129
0.759826
0.763449
0.768325
0.774414
0.782218
0.791078
0.800981
0.811595
0.822661
0.834866
0.843235
0.853681
0.866923
0.87463
0.884853
0.896364
0.906421
0.915511
0.925169
0.935579
0.94754
0.956668
0.96415
0.974081
0.981397
0.989376
0.999423
1.00275
1.00591
1.00254
1.00032
0.990418
0.963874
0.918816
0.868278
0.790867
0.793412
0.814342
0.823689
0.840195
0.838899
0.834923
0.83375
0.834207
0.836724
0.839145
0.841716
0.842824
0.844073
0.84578
0.848018
0.851125
0.854469
0.858268
0.860542
0.862365
0.86421
0.866072
0.868026
0.870094
0.872456
0.875095
0.877972
0.881004
0.88416
0.887435
0.890713
0.894631
0.899703
0.895372
0.736309
0.753853
0.773862
0.791796
0.800531
0.807327
0.819164
0.82075
0.825239
0.833026
0.843359
0.851964
0.859059
0.870102
0.885028
0.899481
0.91386
0.906494
0.897577
0.886333
0.853001
0.788475
0.691969
0.714914
0.731897
0.752203
0.754358
0.755624
0.75791
0.760691
0.763655
0.766906
0.770675
0.775485
0.781575
0.789427
0.798456
0.808676
0.819035
0.829311
0.83981
0.851858
0.859756
0.869607
0.881941
0.889047
0.89845
0.909301
0.919134
0.930137
0.939906
0.950457
0.959773
0.970157
0.977793
0.985895
0.995565
1.00237
1.00897
1.01012
1.01645
1.01565
1.01164
0.989565
0.951599
0.897279
0.844365
0.787143
0.802816
0.818657
0.836927
0.847771
0.845189
0.841791
0.841176
0.841991
0.843817
0.846243
0.848738
0.850291
0.852124
0.854489
0.857542
0.861247
0.864309
0.865889
0.867558
0.869429
0.871466
0.873584
0.875946
0.878578
0.881547
0.88488
0.8881
0.891139
0.894379
0.898449
0.904162
0.899815
0.714163
0.747622
0.764051
0.783709
0.798054
0.805082
0.818417
0.823582
0.824548
0.829895
0.839305
0.851024
0.857265
0.865235
0.877818
0.898886
0.903249
0.896875
0.887062
0.856791
0.797802
0.698286
0.7069
0.725883
0.748416
0.752587
0.754169
0.756899
0.760174
0.763417
0.766772
0.770049
0.773654
0.777926
0.78313
0.789573
0.797161
0.805743
0.815147
0.825049
0.836222
0.845325
0.855279
0.866636
0.874827
0.88354
0.893357
0.903223
0.913584
0.923594
0.933184
0.943119
0.953605
0.960055
0.968059
0.975249
0.982954
0.991503
1.00048
1.01097
1.02259
1.02741
1.02813
1.02045
1.00249
0.975573
0.938549
0.885337
0.815499
0.802195
0.823088
0.828123
0.850296
0.849995
0.847994
0.846961
0.847232
0.847778
0.849033
0.85206
0.855104
0.858208
0.861729
0.864646
0.866514
0.868297
0.87021
0.872291
0.874538
0.87698
0.879677
0.882616
0.885622
0.888611
0.891866
0.895191
0.898548
0.90258
0.908478
0.904134
0.712175
0.735725
0.757469
0.773126
0.792281
0.801284
0.814331
0.827128
0.825626
0.828817
0.835941
0.846584
0.857176
0.863332
0.873643
0.891533
0.889478
0.881728
0.857944
0.803685
0.704841
0.702891
0.722095