/*--------------------------------*- C++ -*----------------------------------*\
| =========                 |                                                 |
| \\      /  F ield         | OpenFOAM: The Open Source CFD Toolbox           |
|  \\    /   O peration     | Version:  v2106                                 |
|   \\  /    A nd           | Website:  www.openfoam.com                      |
|    \\/     M anipulation  |                                                 |
\*---------------------------------------------------------------------------*/
FoamFile
{
    version     2.0;
    format      ascii;
    arch        "LSB;label=32;scalar=64";
    class       volScalarField;
    location    "17";
    object      T;
}
// * * * * * * * * * * * * * * * * * * * * * * * * * * * * * * * * * * * * * //

dimensions      [0 0 0 1 0 0 0];

internalField   nonuniform List<scalar> 
5250
(
1
1
1
1
1
1
1
1
1.00001
1.00009
1.00081
1.00709
1.05909
1.32884
2.03642
2.99851
2.40853
2.3159
2.36212
2.35679
2.36017
2.3652
2.36067
2.35669
2.40387
1
1
1
1
1
1
1
1
1.00001
1.00009
1.00078
1.00687
1.0575
1.32277
2.02334
3.01395
2.40229
2.30986
2.35713
2.35263
2.35633
2.36166
2.35719
2.35363
2.40251
1
1
1
1
1
1
1
1
1.00001
1.00008
1.00073
1.00641
1.05402
1.30919
1.99432
3.06866
2.40002
2.30477
2.35228
2.34608
2.34921
2.35451
2.34967
2.3457
2.39508
1
1
1
1
1
1
1
1
1.00001
1.00008
1.00068
1.00583
1.04912
1.28913
1.95399
3.07816
2.41963
2.31163
2.35518
2.34529
2.34626
2.34839
2.34171
2.33626
2.38538
1
1
1
1
1
1
1
1
1.00001
1.00006
1.0006
1.00507
1.04317
1.26371
1.90141
3.081
2.44747
2.32716
2.36435
2.34846
2.34514
2.34142
2.33173
2.32449
2.37183
1
1
1
1
1
1
1
1
1.00001
1.00005
1.00045
1.00395
1.03652
1.23416
1.83874
3.10594
2.49554
2.35558
2.38221
2.35911
2.34851
2.33982
2.32305
2.30901
2.35283
1
1
1
1
1
1
1
1
1
1.00004
1.00035
1.00315
1.03024
1.20358
1.76464
3.1368
2.56415
2.40236
2.41147
2.37794
2.35488
2.33475
2.30686
2.29181
2.3269
1
1
1
1
1
1
1
1
1
1.00003
1.0003
1.00274
1.02518
1.17664
1.69068
3.08479
2.58143
2.44225
2.44292
2.40413
2.36784
2.33435
2.29901
2.2648
2.28601
1
1
1
1
1
1
1
1
1
1.00003
1.00024
1.00217
1.02006
1.14755
1.61286
2.97552
2.55511
2.48325
2.47766
2.4464
2.39523
2.3377
2.27394
2.23728
2.22037
1
1
1
1
1
1
1
1
1
1.00002
1.0002
1.00172
1.01609
1.12319
1.5329
2.8312
2.48564
2.48076
2.47268
2.45123
2.41029
2.35163
2.26503
2.20375
2.07666
1
1
1
1
1
1
1
1
1
1.00002
1.00017
1.0015
1.01289
1.09298
1.44782
2.68191
2.52471
2.42132
2.42786
2.43741
2.40865
2.34501
2.23689
2.09291
1.80648
1
1
1
1
1
1
1
1
1
1.00001
1.0001
1.00091
1.00762
1.06371
1.36311
2.46539
2.5871
2.35091
2.35908
2.39633
2.39259
2.34627
2.24456
2.11179
1.73302
1
1
1
1
1
1
1
1
1
1.00001
1.00005
1.00046
1.00424
1.04251
1.26302
1.93297
2.71414
2.24405
2.27117
2.33251
2.35533
2.33272
2.24372
2.1343
1.7719
1
1
1
1
1
1
1
1
1
1
1.00004
1.00035
1.00311
1.02824
1.19336
1.73881
2.88804
2.26346
2.22909
2.26363
2.30506
2.29519
2.23067
2.13117
1.84415
1
1
1
1
1
1
1
1
1
1
1.00002
1.00023
1.00201
1.01854
1.1372
1.57687
2.88402
2.30212
2.23775
2.21323
2.24016
2.24481
2.20803
2.12974
1.94028
1
1
1
1
1
1
1
1
1
1
1.00002
1.00015
1.00129
1.01143
1.08671
1.43249
2.73704
2.46692
2.20823
2.13253
2.14978
2.18153
2.16938
2.11606
1.99308
1
1
1
1
1
1
1
1
1
1
1.00001
1.00006
1.00056
1.00501
1.0442
1.29004
2.25499
2.66647
2.24274
2.1402
2.13795
2.1423
2.1286
2.08974
2.00302
1
1
1
1
1
1
1
1
1
1
1
1.00004
1.00035
1.00304
1.02689
1.18559
1.71976
2.82406
2.25573
2.19521
2.12069
2.1111
2.09167
2.05692
1.99322
1
1
1
1
1
1
1
1
1
1
1
1.00002
1.0002
1.00169
1.01471
1.10823
1.50385
2.76755
2.36511
2.19003
2.09067
2.06879
2.04726
2.01656
1.96892
1
1
1
1
1
1
1
1
1
1
1
1.00001
1.00008
1.00073
1.00639
1.05554
1.34111
2.49401
2.53615
2.19494
2.06598
2.05566
2.03734
2.00533
1.95736
1
1
1
1
1
1
1
1
1
1
1
1.00001
1.00005
1.00039
1.00325
1.02679
1.17455
1.76448
2.76453
2.22553
2.13035
2.04082
2.01867
1.99076
1.94844
1
1
1
1
1
1
1
1
1
1
1
1
1.00004
1.00009
1.00122
1.01014
1.08415
1.50075
2.64255
2.38678
2.12492
2.02168
1.99555
1.96796
1.93295
1
1
1
1
1
1
1
1
1
1
1
1
1.00001
1.00008
1.00062
1.00503
1.03978
1.23817
2.09492
2.62966
2.14162
2.07788
2.00431
1.96453
1.92322
1
1
1
1
1
1
1
1
1
1
1
1
1.00001
1.00007
1.00009
1.00156
1.01256
1.1014
1.61969
2.64597
2.2612
2.08055
1.99366
1.95904
1.92037
1
1
1
1
1
1
1
1
1
1
1
1
1
1.00001
1.0001
1.00083
1.0066
1.05149
1.297
2.4502
2.46072
2.09099
2.01652
1.9597
1.91764
1
1
1
1
1
1
1
1
1
1
1
1
1
1.00001
1.00006
1.00013
1.00174
1.01405
1.11293
1.74712
2.68255
2.21544
2.04615
1.9546
1.91606
1
1
1
1
1
1
1
1
1
1
1
1
1
1
1.00001
1.00012
1.00095
1.0073
1.05641
1.3214
2.47931
2.42275
2.06525
1.98224
1.9252
1
1
1
1
1
1
1
1
1
1
1
1
1
1
1.00001
1.0001
1.0001
1.00174
1.01434
1.11165
1.7539
2.6626
2.20579
2.02784
1.92869
1
1
1
1
1
1
1
1
1
1
1
1
1
1
1
1.00002
1.00012
1.00093
1.00693
1.054
1.31953
2.44586
2.40884
2.04729
1.97989
1
1
1
1
1
1
1
1
1
1
1
1
1
1
1
1.00001
1.00005
0.999947
1.00139
1.01413
1.10795
1.68818
2.59003
2.20505
1.99671
1
1
1
1
1
1
1
1
1
1
1
1
1
1
1
1
1.00001
1.00009
1.00075
1.00592
1.04752
1.28977
2.26539
2.41958
2.04942
1
1
1
1
1
1
1
1
1
1
1
1
1
1
1
1
0.999999
0.999985
0.999702
1.00079
1.01093
1.09033
1.5688
2.49271
2.25363
1
1
1
1
1
1
1
1
1
1
1
1
1
1
1
1
1
1.00001
1.00008
1.00064
1.00484
1.03787
1.25008
2.09309
2.45751
1
1
1
1
1
1
1
1
1
1
1
1
1
1
1
1
1
1
1.00002
1.00008
1.0008
1.00836
1.06857
1.36074
2.29295
1
1
1
1
1
1
1
1
1
1
1
1
1
1
1
1
1
1
1.00001
1.00006
1.00051
1.00569
1.00523
1.07253
1.68198
1
1
1
1
1
1
1
1
1
1
1
1
1
1
1
1
1
1
1
1.00001
1.00009
1.00076
1.00561
1.04248
1.28118
1
1
1
1
1
1
1
1
1
1
1
1
1
1
1
1
1
1
1
1.00001
1.00004
1.00025
1.00142
1.00815
1.0715
1
1
1
1
1
1
1
1
1
1
1
1
1
1
1
1
1
1
1
1
1.00001
1.00007
1.00047
1.00439
1.00204
1
1
1
1
1
1
1
1
1
1
1
1
1
1
1
1
1
1
1
1
1
1.00002
1.00011
1.00073
1.0048
1
1
1
1
1
1
1
1
1
1
1
1
1
1
1
1
1
1
1
1
1
1
1.00002
1.00022
1.00122
1
1
1
1
1
1
1
1
1
1
1
1
1
1
1
1
1
1
1
1
1
1
1.00002
1.00024
1.00022
1
1
1
1
1
1
1
1
1
1
1
1
1
1
1
1
1
1
1
1
1
1
1
1.00002
1.0001
1
1
1
1
1
1
1
1
1
1
1
1
1
1
1
1
1
1
1
1
1
1
1
1.00001
1.00003
1
1
1
1
1
1
1
1
1
1
1
1
1
1
1
1
1
1
1
1
1
1
1
1
1
1
1
1
1
1
1
1
1
1
1
1
1
1
1
1
1
1
1
1
1
1
1
1
1
1
1
1
1
1
1
1
1
1
1
1
1
1
1
1
1
1
1
1
1
1
1
1
1
1
1
1
1
1
1
1
1
1
1
1
1
1
1
1
1
1
1
1
1
1
1
1
1
1
1
1
1
1
1
1
1
1
1
1
1
1
1
1
1
1
1
1
1
1
1
1
1
1
1
1
1
1
1
1
1
1
1
1
1
1
1
1
1
1
1
1
1
1
1
1
1
1
1
1
1
1
1
1
1
1
1
1
1
1
1
1
1
1
1
1
1
1
1
1
1
1
1
1
1
1
1
2.00806
2.27597
2.81018
2.76994
2.74853
2.79744
2.84114
2.82421
2.63193
2.56156
2.55212
2.55544
2.55741
2.57504
2.59115
2.51596
2.45686
2.43067
2.42579
2.43009
2.43589
2.4385
2.43973
2.4388
2.43944
2.43082
2.42241
2.41762
2.41353
2.41071
2.40954
2.40374
2.40793
2.40941
2.4156
2.46126
2.49916
2.53451
2.57201
2.62487
2.65945
2.68823
2.72186
2.75607
2.79152
2.81775
2.82667
2.83255
2.84362
2.8457
2.86504
2.85386
2.84272
2.83062
2.81635
2.8043
2.79038
2.77613
2.76161
2.74651
2.73238
2.71914
2.70603
2.6924
2.67922
2.66589
2.65348
2.64147
2.62963
2.61802
2.60657
2.59548
2.58437
2.57386
2.56339
2.55334
2.54325
2.53352
2.52378
2.51448
2.50515
2.49626
2.48726
2.47869
2.47002
2.46191
2.45375
2.44631
2.43886
2.43219
2.42541
2.41909
2.41247
2.40588
2.39912
2.39203
2.38482
2.3734
2.37221
2.37754
2.06398
2.236
2.4331
2.66293
2.74549
2.84993
2.97413
3.11923
2.90802
2.84158
2.83238
2.88789
2.89542
2.92136
2.9266
2.84759
2.8103
2.79138
2.79292
2.79673
2.80083
2.8044
2.80549
2.80454
2.8067
2.80262
2.79407
2.78742
2.78051
2.77779
2.77661
2.77138
2.77723
2.78378
2.78027
2.81898
2.84836
2.87008
2.89327
2.92039
2.93615
2.93762
2.92987
2.95169
2.96817
2.94593
2.92878
2.91516
2.88651
2.85923
2.82369
2.78558
2.74816
2.7171
2.68864
2.66054
2.62943
2.60091
2.57929
2.55856
2.53621
2.51542
2.49824
2.48095
2.46531
2.45003
2.43562
2.42209
2.40846
2.39524
2.38198
2.36967
2.3575
2.3461
2.33467
2.32427
2.314
2.30464
2.29536
2.28673
2.2781
2.26995
2.26179
2.25381
2.24575
2.23785
2.22983
2.22232
2.21481
2.20833
2.20207
2.19667
2.19117
2.18574
2.18017
2.17428
2.16781
2.15814
2.1549
2.15977
1.87387
2.02718
2.18724
2.43513
2.56743
2.66476
2.73267
2.89227
3.01768
3.02347
3.04069
3.02139
2.97868
3.02624
3.07711
3.12875
3.02073
2.98157
2.97805
2.97469
2.99225
3.00063
3.00464
3.00174
3.00114
2.99424
2.98258
2.98194
2.9818
2.98092
2.98376
2.97393
2.97976
2.98411
2.97838
3.00755
3.03394
3.0365
3.11979
3.1013
3.0692
3.03684
2.99802
2.9446
2.86928
2.7791
2.70961
2.65261
2.59721
2.55146
2.50745
2.47085
2.43177
2.40422
2.38288
2.36118
2.33843
2.31788
2.30017
2.28462
2.26785
2.24993
2.23473
2.22044
2.2074
2.19533
2.18509
2.17535
2.16546
2.15529
2.14487
2.13441
2.12409
2.11483
2.10626
2.09832
2.09066
2.08322
2.07577
2.06852
2.0612
2.05444
2.04775
2.04151
2.0353
2.02925
2.02319
2.01721
2.0112
2.00516
1.99884
1.99276
1.98685
1.9816
1.97686
1.97221
1.9673
1.95966
1.95872
1.96494
1.74237
1.8086
1.90285
2.07686
2.2757
2.43875
2.46993
2.55155
2.69003
2.83777
2.90805
2.96323
2.96098
2.94155
2.9444
3.02622
3.05989
3.0612
3.06904
3.06185
3.05265
3.00818
2.98436
2.99134
2.99315
2.9928
2.99414
2.98927
2.97911
2.97468
2.98047
2.97512
3.00453
3.02707
3.08202
3.12594
3.11561
3.09775
3.03954
2.92969
2.78336
2.6726
2.60266
2.53635
2.47298
2.42478
2.37353
2.32284
2.3016
2.26723
2.24869
2.22981
2.20911
2.19431
2.17791
2.16141
2.14434
2.13325
2.12217
2.11307
2.10276
2.09021
2.07661
2.06484
2.05324
2.04356
2.03521
2.02758
2.02011
2.01257
2.00473
1.9965
1.98796
1.97936
1.97063
1.9628
1.9558
1.94949
1.94364
1.93807
1.93255
1.92696
1.92118
1.91525
1.90935
1.90386
1.89856
1.89358
1.88882
1.88408
1.87923
1.87413
1.86873
1.863
1.85725
1.85212
1.84686
1.8392
1.8373
1.84394
1.76066
1.74492
1.78387
1.87255
1.98418
2.1266
2.20666
2.19309
2.30181
2.44863
2.60026
2.71017
2.79163
2.80523
2.80443
2.82177
2.86606
2.91776
2.9565
2.99427
3.01263
3.00768
2.99623
2.9902
2.98294
2.97871
2.98608
2.98511
2.9813
2.97675
2.97005
2.98514
3.00485
3.03094
3.02722
2.98348
2.89078
2.74944
2.6221
2.5147
2.39923
2.35452
2.29389
2.25034
2.19933
2.17359
2.13803
2.11845
2.11234
2.09208
2.08717
2.07934
2.06725
2.05842
2.04707
2.03597
2.02828
2.02291
2.01628
2.00742
1.99745
1.98691
1.97668
1.96838
1.96073
1.95275
1.94477
1.93757
1.93083
1.92398
1.91696
1.9098
1.90239
1.89502
1.88818
1.88148
1.87488
1.8684
1.86187
1.85558
1.84996
1.8449
1.83992
1.83507
1.83026
1.8255
1.82077
1.81612
1.81148
1.80693
1.80235
1.79769
1.79295
1.78805
1.78301
1.77786
1.77242
1.76508
1.76096
1.76716
1.82553
1.73123
1.73411
1.7693
1.82755
1.89941
1.96216
1.96165
2.04247
2.1622
2.27965
2.37839
2.47957
2.53641
2.55526
2.58982
2.64122
2.70191
2.75155
2.8026
2.85188
2.88255
2.90525
2.9192
2.9309
2.93491
2.94205
2.94441
2.95034
2.95968
2.96125
2.96905
2.95245
2.90899
2.83297
2.70599
2.54986
2.37999
2.26935
2.19092
2.12901
2.0998
2.06465
2.04291
2.01509
2.01015
2.00122
1.99829
1.97986
1.97611
1.9888
1.98677
1.97523
1.96655
1.96107
1.95633
1.95397
1.95023
1.94467
1.93676
1.92731
1.92116
1.91548
1.90828
1.9001
1.8913
1.88446
1.87856
1.87317
1.86761
1.86165
1.85535
1.84898
1.84269
1.83611
1.82914
1.82179
1.81435
1.8079
1.80248
1.79759
1.79286
1.78822
1.78364
1.77907
1.77448
1.76983
1.7651
1.76072
1.75646
1.75221
1.7479
1.74351
1.73898
1.73428
1.72935
1.72396
1.71701
1.71144
1.71739
1.89406
1.7711
1.73544
1.72689
1.75592
1.78711
1.79558
1.7819
1.79724
1.85783
1.95093
2.02857
2.11129
2.18338
2.24984
2.28875
2.34591
2.4094
2.47621
2.5313
2.59442
2.6431
2.69207
2.73027
2.77036
2.79477
2.82827
2.84339
2.86446
2.89381
2.89106
2.87321
2.82899
2.73023
2.55959
2.33381
2.17309
2.04681
1.97632
1.9057
1.89027
1.88211
1.88262
1.89375
1.90855
1.93858
1.9536
1.92913
1.90143
1.90378
1.90565
1.90922
1.9145
1.9135
1.912
1.90738
1.90285
1.89775
1.89396
1.89196
1.88877
1.88127
1.8744
1.86779
1.86073
1.85447
1.84903
1.84427
1.83931
1.83401
1.82829
1.82224
1.81572
1.80876
1.80185
1.7957
1.78993
1.7843
1.77867
1.77317
1.76793
1.76274
1.75758
1.75243
1.74736
1.74266
1.73813
1.73377
1.72965
1.72551
1.72132
1.71703
1.71263
1.70809
1.7034
1.69853
1.69328
1.68697
1.6809
1.68671
1.91572
1.82833
1.76051
1.73136
1.74472
1.74172
1.73709
1.70848
1.68611
1.70273
1.75558
1.82037
1.87816
1.93565
1.99423
1.99906
2.02468
2.07766
2.1473
2.20873
2.28903
2.34088
2.40076
2.44921
2.50598
2.55156
2.60877
2.65186
2.7109
2.7384
2.7719
2.70996
2.59747
2.42084
2.18763
2.0107
1.90628
1.83476
1.7841
1.7377
1.72005
1.71757
1.71898
1.72974
1.7462
1.78128
1.8293
1.88474
1.90941
1.8869
1.85699
1.85043
1.85399
1.86655
1.88202
1.87969
1.87394
1.86772
1.86517
1.86391
1.86184
1.85684
1.84849
1.84349
1.83838
1.83478
1.831
1.82666
1.82125
1.81482
1.80714
1.80051
1.79509
1.78968
1.78421
1.77867
1.77299
1.76718
1.76152
1.75609
1.7509
1.74579
1.74072
1.73563
1.73061
1.7258
1.7212
1.71673
1.71243
1.70811
1.70377
1.69939
1.69496
1.69047
1.6859
1.68121
1.67617
1.67011
1.66378
1.66943
1.90965
1.85632
1.79291
1.76275
1.73992
1.7364
1.72229
1.68852
1.65252
1.62542
1.63767
1.66972
1.71187
1.7462
1.77513
1.7967
1.80646
1.8326
1.87559
1.92694
1.97683
2.0339
2.08593
2.13823
2.19259
2.24736
2.3104
2.37104
2.48054
2.56741
2.55936
2.45791
2.3114
2.10656
1.90595
1.81351
1.7536
1.71628
1.67814
1.64176
1.62358
1.61283
1.60805
1.6106
1.61986
1.64991
1.68794
1.73361
1.80088
1.90296
1.88242
1.83332
1.83346
1.83385
1.83875
1.84996
1.85589
1.85176
1.84945
1.84459
1.84306
1.84026
1.83419
1.82813
1.82598
1.82266
1.8182
1.81312
1.80735
1.80093
1.79387
1.78777
1.7835
1.77885
1.77378
1.76836
1.76271
1.75699
1.75155
1.74627
1.74105
1.73588
1.73076
1.72559
1.72065
1.71603
1.71164
1.7073
1.70304
1.69874
1.6944
1.68997
1.68546
1.68091
1.67634
1.6717
1.66675
1.66079
1.65447
1.66015
1.89492
1.85847
1.80583
1.79039
1.74882
1.74186
1.72472
1.69287
1.6569
1.61786
1.59808
1.60906
1.62663
1.6415
1.65804
1.67835
1.66977
1.67292
1.69104
1.72259
1.76002
1.79624
1.8337
1.87211
1.91019
1.95132
2.00786
2.07419
2.2152
2.40121
2.31352
2.20527
2.06621
1.87691
1.77723
1.72598
1.67642
1.63751
1.60598
1.58288
1.57249
1.55838
1.54567
1.5442
1.54753
1.56216
1.57872
1.61138
1.66585
1.73166
1.81168
1.89765
1.86315
1.82618
1.81312
1.81756
1.82506
1.83797
1.8372
1.83281
1.82513
1.8249
1.82328
1.81818
1.81562
1.81295
1.80864
1.80233
1.79512
1.78914
1.78364
1.77832
1.77347
1.76856
1.76349
1.75813
1.7527
1.74746
1.74226
1.737
1.73179
1.72673
1.72194
1.71747
1.71322
1.709
1.70475
1.70043
1.69601
1.69146
1.68678
1.68206
1.67753
1.67299
1.66842
1.66376
1.65876
1.65272
1.64621
1.6519
1.89023
1.85418
1.81692
1.79438
1.75927
1.75165
1.73339
1.70333
1.66516
1.62732
1.59236
1.58188
1.58722
1.60077
1.60689
1.60891
1.60427
1.59865
1.60023
1.61137
1.63201
1.6592
1.68356
1.71015
1.73986
1.77597
1.82994
1.92511
2.13425
2.24353
2.14447
2.04826
1.92245
1.79326
1.73463
1.68109
1.63149
1.59892
1.57023
1.54958
1.53697
1.52361
1.52119
1.51723
1.51264
1.51289
1.51684
1.5339
1.56005
1.59821
1.65894
1.74034
1.86858
1.86787
1.82914
1.81974
1.80665
1.80777
1.8111
1.81467
1.8141
1.81287
1.81022
1.80319
1.79914
1.79783
1.79555
1.79083
1.78325
1.77663
1.77167
1.76689
1.76201
1.75686
1.75134
1.74605
1.74138
1.7368
1.7322
1.7274
1.72228
1.71725
1.713
1.70894
1.70489
1.7008
1.69664
1.69235
1.68792
1.68334
1.67866
1.67393
1.66925
1.66458
1.65988
1.6551
1.64997
1.64379
1.63711
1.643
1.88473
1.84589
1.81249
1.79099
1.7638
1.7578
1.7412
1.71427
1.67842
1.64295
1.60454
1.57989
1.57097
1.57391
1.57705
1.57676
1.57368
1.56363
1.54848
1.5514
1.55875
1.5735
1.59073
1.60872
1.63233
1.67029
1.73963
1.88657
2.18164
2.09507
2.0194
1.93238
1.82431
1.77406
1.72603
1.67776
1.64078
1.6032
1.57484
1.55186
1.52792
1.51036
1.49636
1.49917
1.49837
1.49395
1.49374
1.494
1.5
1.51438
1.54652
1.59408
1.66582
1.75912
1.89494
1.86301
1.8231
1.78143
1.78237
1.78589
1.79506
1.79183
1.79122
1.78915
1.78487
1.78063
1.77734
1.77405
1.76895
1.76168
1.75537
1.75004
1.74526
1.74053
1.73568
1.73146
1.72716
1.72263
1.71785
1.71276
1.70716
1.70297
1.69989
1.69666
1.6932
1.68948
1.68555
1.6814
1.67707
1.6726
1.66803
1.66343
1.65879
1.65411
1.64941
1.64462
1.63948
1.6333
1.62655
1.63261
1.87656
1.84093
1.80754
1.78631
1.76358
1.75556
1.74065
1.72129
1.6949
1.66045
1.62066
1.59349
1.5754
1.56274
1.56413
1.56565
1.55979
1.54667
1.53681
1.52746
1.52025
1.5262
1.53816
1.55041
1.57724
1.63067
1.7452
1.94992
2.103
1.99998
1.9413
1.87554
1.81327
1.76916
1.72445
1.69055
1.65501
1.62531
1.60142
1.57709
1.55283
1.53896
1.52465
1.50806
1.48734
1.47675
1.47957
1.47967
1.47747
1.47716
1.48615
1.50278
1.54028
1.59969
1.68115
1.79829
1.85217
1.80869
1.79189
1.76099
1.7678
1.76869
1.77575
1.77231
1.76813
1.76563
1.76166
1.75633
1.75287
1.74852
1.74279
1.73628
1.72934
1.72479
1.72052
1.71658
1.71279
1.70893
1.70482
1.70036
1.69605
1.69222
1.68836
1.68441
1.68038
1.6763
1.67218
1.668
1.66378
1.65951
1.65521
1.65089
1.64652
1.64209
1.6376
1.63298
1.62797
1.62185
1.61495
1.62127
1.87634
1.83678
1.80518
1.7786
1.75893
1.74869
1.73768
1.72244
1.70157
1.6732
1.64285
1.60764
1.58843
1.56883
1.55702
1.55772
1.55353
1.54761
1.53752
1.52285
1.50746
1.51228
1.52317
1.53659
1.57441
1.66544
1.83742
2.09876
1.99724
1.95376
1.90948
1.86194
1.82136
1.78331
1.74958
1.71539
1.68332
1.65645
1.62913
1.60377
1.58339
1.56338
1.54217
1.51831
1.50292
1.49621
1.48247
1.46619
1.46247
1.46513
1.46302
1.45919
1.46916
1.49145
1.53792
1.60494
1.69827
1.85199
1.8332
1.78152
1.76436
1.7429
1.74843
1.74896
1.75205
1.75193
1.7507
1.74367
1.7389
1.73567
1.7319
1.72722
1.72152
1.71498
1.71118
1.70776
1.70433
1.70079
1.69696
1.69258
1.68727
1.68171
1.67724
1.67263
1.66812
1.66368
1.65932
1.65501
1.65069
1.64628
1.6418
1.63721
1.63252
1.62772
1.62305
1.61841
1.61355
1.60771
1.60121
1.60804
1.87415
1.83459
1.80321
1.77994
1.75528
1.74158
1.73194
1.71803
1.70011
1.67702
1.65244
1.62125
1.60133
1.58591
1.56252
1.55697
1.55727
1.55079
1.54003
1.52678
1.50951
1.51077
1.52246
1.54963
1.61636
1.76337
2.06838
2.01869
1.93614
1.91244
1.88575
1.85736
1.82709
1.79492
1.76152
1.73032
1.7023
1.67623
1.65071
1.62816
1.60694
1.58455
1.55895
1.54383
1.53143
1.51401
1.49275
1.48229
1.46905
1.45506
1.44209
1.43912
1.44316
1.44296
1.45944
1.49214
1.54904
1.63261
1.7301
1.84514
1.81125
1.7766
1.72211
1.73133
1.73608
1.74491
1.74377
1.7408
1.73486
1.72833
1.7221
1.71799
1.71391
1.70976
1.70515
1.7011
1.69794
1.69453
1.6909
1.687
1.68264
1.67762
1.67191
1.66726
1.66277
1.65839
1.65397
1.64947
1.64483
1.64002
1.63516
1.63042
1.62565
1.62082
1.61592
1.61093
1.60561
1.59921
1.59167
1.59828
1.87466
1.83474
1.80147
1.78142
1.75776
1.74012
1.72885
1.71572
1.6993
1.67839
1.65354
1.63043
1.60405
1.5914
1.57209
1.55707
1.55871
1.55496
1.5458
1.52919
1.52022
1.52656
1.53803
1.59032
1.71503
1.99994
1.99678
1.91831
1.90796
1.89283
1.87483
1.85429
1.83047
1.80438
1.77618
1.74744
1.72158
1.69644
1.672
1.64927
1.62602
1.60087
1.58221
1.56774
1.54844
1.52691
1.51388
1.4979
1.48003
1.46203
1.44566
1.43005
1.43167
1.42818
1.43401
1.44248
1.46017
1.50097
1.56338
1.6547
1.80729
1.80497
1.74949
1.74392
1.712
1.71646
1.72251
1.73139
1.72947
1.7258
1.72134
1.71531
1.70801
1.70554
1.70273
1.69901
1.69471
1.69169
1.6884
1.68481
1.6806
1.67575
1.67019
1.664
1.659
1.65448
1.64983
1.64498
1.64021
1.63571
1.63119
1.62669
1.62206
1.61719
1.61205
1.60674
1.60109
1.59434
1.58591
1.59237
1.87782
1.83546
1.79857
1.78001
1.76048
1.73814
1.72649
1.71451
1.69921
1.68076
1.65735
1.63465
1.60993
1.59224
1.57639
1.5579
1.55707
1.55448
1.542
1.53778
1.54073
1.5487
1.58764
1.68578
1.89122
1.98806
1.91826
1.89542
1.88431
1.875
1.86458
1.85077
1.83295
1.81125
1.78782
1.76307
1.73755
1.71319
1.68927
1.66619
1.64014
1.6187
1.60405
1.58341
1.56025
1.54607
1.52863
1.5106
1.49037
1.47331
1.46353
1.45147
1.43637
1.42139
1.42015
1.42396
1.42391
1.43491
1.46008
1.51091
1.57853
1.66758
1.81308
1.79221
1.75265
1.723
1.70092
1.70846
1.70959
1.71203
1.71153
1.70888
1.70191
1.69314
1.69189
1.69041
1.68776
1.68436
1.68086
1.67708
1.67266
1.66778
1.66262
1.65781
1.65303
1.64861
1.64407
1.63938
1.63498
1.63065
1.62628
1.62177
1.61704
1.61207
1.60689
1.60152
1.59581
1.58888
1.58
1.58681
1.88664
1.84231
1.80169
1.77741
1.76261
1.73906
1.72487
1.71481
1.70034
1.68293
1.66151
1.64093
1.61934
1.59666
1.57669
1.56042
1.55575
1.54449
1.54533
1.54989
1.55819
1.58889
1.67575
1.83102
2.00005
1.92528
1.89988
1.87701
1.87185
1.8666
1.86016
1.85033
1.8361
1.81756
1.79646
1.77418
1.75067
1.72686
1.70372
1.6798
1.65542
1.63903
1.61731
1.59154
1.57883
1.56041
1.53871
1.52298
1.50662
1.49245
1.4769
1.46289
1.44812
1.43715
1.4236
1.41349
1.41182
1.41629
1.41649
1.43242
1.46012
1.51273
1.59899
1.69981
1.79579
1.75819
1.73498
1.68642
1.68996
1.69661
1.70298
1.70221
1.69999
1.69334
1.68464
1.68072
1.67938
1.67726
1.67468
1.67155
1.66683
1.66079
1.65345
1.64804
1.64403
1.64002
1.63602
1.63205
1.62807
1.62405
1.61988
1.6154
1.61049
1.60516
1.59946
1.59382
1.58822
1.58155
1.57308
1.58044
1.90109
1.85355
1.80471
1.77202
1.76147
1.74258
1.72266
1.71634
1.70365
1.6865
1.66536
1.64787
1.62908
1.60655
1.58024
1.56494
1.54633
1.54777
1.55646
1.56444
1.58707
1.66205
1.81255
2.01852
1.94223
1.90864
1.86859
1.86732
1.86498
1.86025
1.85365
1.84485
1.83315
1.81873
1.80059
1.78042
1.75841
1.73541
1.71207
1.68704
1.67029
1.64986
1.62465
1.61034
1.59173
1.57129
1.55386
1.53843
1.52237
1.50543
1.48643
1.47225
1.46082
1.44593
1.43515
1.42357
1.40926
1.40458
1.40017
1.40488
1.408
1.42208
1.46124
1.5329
1.62212
1.7809
1.77518
1.72956
1.70993
1.67634
1.67893
1.68692
1.6893
1.68837
1.68329
1.67844
1.67331
1.67111
1.66864
1.66527
1.66087
1.65481
1.64833
1.64104
1.6367
1.63324
1.62975
1.62625
1.62259
1.61873
1.61435
1.60948
1.60421
1.59869
1.59298
1.5871
1.58126
1.57434
1.56546
1.57303
1.91285
1.86834
1.82003
1.7788
1.7594
1.74458
1.71938
1.71605
1.70672
1.69076
1.67005
1.65318
1.63953
1.61872
1.59142
1.56585
1.54121
1.55373
1.56917
1.58908
1.65117
1.7863
2.03543
1.9701
1.92438
1.87243
1.86708
1.86396
1.85834
1.85154
1.84436
1.83654
1.82755
1.81622
1.80207
1.78414
1.76397
1.74167
1.71965
1.69834
1.67711
1.65339
1.6382
1.61964
1.59699
1.58423
1.56764
1.54894
1.53237
1.51424
1.4985
1.48187
1.46748
1.45178
1.44044
1.4286
1.41473
1.40512
1.39593
1.39433
1.38566
1.38675
1.39224
1.4233
1.48009
1.56969
1.66806
1.78932
1.75439
1.72044
1.68288
1.66136
1.66643
1.67316
1.67438
1.67276
1.66914
1.66436
1.65946
1.65643
1.65287
1.6483
1.64243
1.63536
1.62957
1.62659
1.62347
1.61997
1.61619
1.61227
1.60792
1.6031
1.5977
1.59169
1.58591
1.58051
1.57478
1.56765
1.55774
1.56527
1.97217
1.88391
1.8434
1.79716
1.76486
1.74945
1.72094
1.71015
1.70815
1.69714
1.67811
1.65501
1.64296
1.62782
1.60449
1.56688
1.55932
1.5704
1.58777
1.64387
1.76541
2.01701
1.99243
1.94033
1.88191
1.87148
1.86755
1.86082
1.8528
1.84493
1.83686
1.82904
1.82052
1.81052
1.79849
1.78381
1.76683
1.74802
1.72785
1.70711
1.6843
1.66617
1.64677
1.62519
1.60998
1.5941
1.57658
1.55936
1.54168
1.52497
1.5093
1.4934
1.47697
1.46705
1.45492
1.4442
1.43288
1.42052
1.40778
1.39317
1.37733
1.37088
1.36991
1.38023
1.40495
1.44372
1.50067
1.59086
1.7271
1.75575
1.71118
1.70077
1.65642
1.65701
1.66092
1.66295
1.66241
1.66134
1.65889
1.65299
1.64711
1.64115
1.63445
1.62893
1.62542
1.62208
1.61852
1.61466
1.61051
1.60602
1.6011
1.59577
1.59035
1.585
1.57922
1.57335
1.56747
1.56047
1.55034
1.55779
1.97767
1.91437
1.85942
1.82176
1.77772
1.75774
1.72958
1.70282
1.70592
1.69935
1.68487
1.66369
1.64313
1.63141
1.61216
1.57981
1.58346
1.59737
1.64166
1.75249
1.99825
2.0038
1.95051
1.89198
1.87617
1.87107
1.86308
1.85394
1.84418
1.83517
1.82729
1.81942
1.81162
1.8032
1.79357
1.78215
1.76826
1.75204
1.73379
1.71478
1.69437
1.6754
1.65568
1.63763
1.61977
1.60191
1.58566
1.56887
1.55218
1.53613
1.51965
1.50481
1.49017
1.47786
1.46655
1.45494
1.44439
1.43235
1.41869
1.40313
1.38853
1.36914
1.36547
1.36587
1.37111
1.38083
1.40183
1.45472
1.52483
1.61409
1.75856
1.73538
1.69307
1.66978
1.6362
1.63766
1.64535
1.64759
1.64842
1.64715
1.64194
1.63472
1.62438
1.62111
1.61892
1.61596
1.61248
1.60828
1.60368
1.59903
1.59425
1.58919
1.58341
1.57756
1.57174
1.56575
1.55964
1.55245
1.5425
1.55007
2.08088
1.95914
1.86281
1.81987
1.78254
1.76209
1.74224
1.70682
1.69909
1.69781
1.68681
1.66651
1.6412
1.63071
1.61748
1.60817
1.6153
1.64716
1.74841
1.96194
2.03108
1.96978
1.91914
1.89374
1.88562
1.87542
1.86406
1.85251
1.84175
1.83097
1.82197
1.81351
1.80518
1.7968
1.78771
1.7775
1.76565
1.75202
1.73645
1.71953
1.70151
1.68288
1.6639
1.64591
1.62809
1.61074
1.59395
1.57772
1.56148
1.54533
1.52943
1.5147
1.50116
1.48748
1.47666
1.46512
1.4534
1.44134
1.42851
1.41472
1.39932
1.38209
1.36265
1.35934
1.36437
1.36369
1.36405
1.37884
1.4124
1.47004
1.55036
1.64098
1.73075
1.69743
1.67523
1.64296
1.62705
1.63056
1.63788
1.63781
1.63574
1.62991
1.62194
1.61173
1.60852
1.60723
1.60502
1.60191
1.59751
1.59255
1.58724
1.58108
1.57503
1.569
1.56294
1.55679
1.55035
1.54303
1.53357
1.54135
2.20533
1.92643
1.88336
1.82314
1.7897
1.76761
1.74605
1.71431
1.70036
1.69885
1.68852
1.67017
1.6388
1.63373
1.63545
1.64174
1.66565
1.75106
1.92204
2.04946
1.97891
1.94824
1.91296
1.90179
1.88945
1.87681
1.86379
1.85129
1.83951
1.8279
1.8161
1.8065
1.79832
1.78991
1.78136
1.77226
1.76205
1.75059
1.73739
1.72256
1.7064
1.68941
1.67211
1.65452
1.63782
1.62111
1.6047
1.58823
1.57169
1.55501
1.53896
1.52387
1.50966
1.49779
1.48535
1.47431
1.46224
1.44941
1.43666
1.42295
1.40729
1.38712
1.37422
1.37055
1.36175
1.35407
1.34974
1.35704
1.36599
1.38706
1.4239
1.48465
1.56605
1.70327
1.69454
1.65422
1.64382
1.61818
1.61179
1.61546
1.61971
1.61908
1.61623
1.61158
1.60517
1.59922
1.59716
1.59369
1.58934
1.58426
1.57892
1.57248
1.56535
1.55868
1.55296
1.54699
1.54066
1.53353
1.52379
1.53178
2.49307
2.16481
1.91026
1.85134
1.80621
1.77912
1.75324
1.72363
1.7072
1.70204
1.69431
1.67597
1.64398
1.64815
1.66355
1.69324
1.77461
1.91781
2.05908
1.98303
1.95744
1.92022
1.91152
1.90036
1.88819
1.87549
1.86197
1.84921
1.8375
1.82603
1.81445
1.80374
1.79497
1.78631
1.77744
1.76818
1.75821
1.74736
1.73545
1.72247
1.7083
1.69346
1.67792
1.66218
1.64608
1.62995
1.61386
1.5974
1.5807
1.56384
1.54766
1.53141
1.51859
1.50601
1.49426
1.48245
1.47019
1.45762
1.44445
1.43074
1.41588
1.39925
1.39131
1.38235
1.37367
1.36444
1.35416
1.34878
1.35157
1.35294
1.36406
1.3882
1.43685
1.50732
1.58612
1.70717
1.68171
1.64599
1.62356
1.59286
1.59633
1.6041
1.60526
1.60392
1.5991
1.59101
1.58231
1.57931
1.57568
1.57153
1.56679
1.56101
1.55326
1.54709
1.54106
1.53479
1.52832
1.52137
1.51245
1.52074
2.27411
2.39884
2.05722
1.92386
1.8262
1.77498
1.74741
1.72134
1.69319
1.69175
1.68925
1.679
1.66677
1.67611
1.70644
1.79639
1.94737
2.09392
2.00538
1.9771
1.93067
1.92449
1.91698
1.90632
1.89393
1.88059
1.86619
1.85377
1.84137
1.82885
1.81624
1.8036
1.79188
1.78211
1.77275
1.76332
1.75363
1.74356
1.73293
1.72152
1.70935
1.69623
1.68237
1.66772
1.65268
1.63703
1.62123
1.60481
1.58791
1.57073
1.5536
1.53788
1.52492
1.51264
1.50052
1.48826
1.47536
1.46245
1.44895
1.43481
1.41954
1.40712
1.39856
1.38853
1.38019
1.37165
1.36171
1.3497
1.34357
1.34518
1.34634
1.34922
1.36744
1.39442
1.44653
1.52807
1.65972
1.66884
1.62908
1.62005
1.60037
1.58956
1.58735
1.58752
1.58709
1.5843
1.57663
1.56692
1.56288
1.55811
1.55398
1.54876
1.54244
1.5349
1.52924
1.52325
1.51631
1.50866
1.50042
1.50863
1.39298
2.22916
2.13368
1.88682
1.83889
1.7779
1.74896
1.72608
1.70192
1.68265
1.67954
1.68717
1.69759
1.72465
1.80884
1.96444
2.13089
2.03758
2.00842
1.95794
1.9414
1.93399
1.92358
1.91158
1.89852
1.88472
1.87072
1.85679
1.84331
1.82984
1.81643
1.80304
1.78985
1.77879
1.76907
1.75943
1.7497
1.73948
1.72872
1.71757
1.70587
1.6937
1.68097
1.66769
1.65372
1.63898
1.62361
1.6076
1.59097
1.57366
1.55596
1.54164
1.52845
1.51655
1.50436
1.49184
1.47911
1.46594
1.45234
1.4382
1.4237
1.40975
1.39899
1.3909
1.38348
1.37583
1.36743
1.35915
1.35018
1.34009
1.33502
1.33586
1.33799
1.3434
1.36712
1.41657
1.47929
1.56149
1.6783
1.65972
1.62606
1.61647
1.58708
1.57026
1.5761
1.57474
1.57117
1.56513
1.55655
1.54815
1.54256
1.53846
1.53327
1.52705
1.52056
1.51449
1.50737
1.49866
1.4884
1.49684
1.06663
1.66146
2.40038
2.11279
1.8639
1.8189
1.76428
1.7466
1.72511
1.69164
1.69315
1.71025
1.74482
1.83337
1.98866
2.16279
2.06442
2.03552
1.98377
1.96388
1.95484
1.94252
1.92901
1.91467
1.90111
1.88723
1.8724
1.85712
1.84267
1.8288
1.81492
1.80116
1.78743
1.7743
1.76271
1.75177
1.74089
1.73005
1.71909
1.70817
1.69709
1.68583
1.6744
1.66259
1.65017
1.63703
1.62317
1.60861
1.59308
1.57645
1.56028
1.54632
1.53346
1.52124
1.50924
1.49706
1.48472
1.47184
1.45899
1.44579
1.43322
1.42177
1.40979
1.40302
1.39558
1.38699
1.38062
1.37282
1.36359
1.35333
1.34673
1.33667
1.33982
1.33704
1.34212
1.35753
1.38396
1.43105
1.50866
1.61914
1.69076
1.65196
1.62684
1.59745
1.56124
1.56275
1.56601
1.56275
1.55629
1.54866
1.54252
1.53591
1.52911
1.52157
1.51613
1.50966
1.50161
1.49137
1.47823
1.48717
1.03742
1.24727
2.02685
2.33775
2.02242
1.88259
1.79358
1.74961
1.70766
1.70032
1.71557
1.74917
1.84755
2.01591
2.20102
2.09684
2.06235
2.00223
1.98394
1.97753
1.96528
1.95008
1.93261
1.91792
1.90342
1.88825
1.87234
1.85568
1.83983
1.82502
1.81062
1.79629
1.78221
1.76829
1.75535
1.74344
1.73168
1.71988
1.70836
1.69702
1.68661
1.67615
1.66546
1.65451
1.64313
1.63129
1.61888
1.60563
1.59129
1.57584
1.56037
1.54664
1.53418
1.52205
1.51055
1.4991
1.48725
1.47535
1.46275
1.45151
1.44021
1.43121
1.4225
1.41433
1.40618
1.39814
1.38911
1.38334
1.37617
1.37012
1.36321
1.35577
1.34753
1.33772
1.33521
1.34368
1.34766
1.35925
1.40284
1.47879
1.57622
1.69652
1.67319
1.62994
1.60761
1.57676
1.55739
1.55742
1.56019
1.55637
1.54843
1.54058
1.53241
1.52297
1.51597
1.50947
1.50159
1.49069
1.47498
1.48345
1.00705
1.06328
1.38527
2.24939
2.17781
1.91252
1.8218
1.75354
1.71507
1.72286
1.75294
1.85164
2.03028
2.22877
2.12563
2.0805
2.00639
1.99365
1.991
1.98103
1.9658
1.94702
1.92618
1.91078
1.89567
1.8803
1.86462
1.8485
1.83271
1.81786
1.80341
1.78899
1.77463
1.76059
1.74659
1.73396
1.72172
1.7095
1.6974
1.68595
1.67689
1.66788
1.65849
1.64887
1.63909
1.62902
1.61835
1.60669
1.59398
1.58023
1.56718
1.55585
1.54467
1.53362
1.52264
1.51148
1.50018
1.48858
1.47756
1.46604
1.45637
1.44839
1.44049
1.43297
1.42555
1.41756
1.41041
1.40477
1.39856
1.39326
1.38742
1.38102
1.37415
1.37125
1.36691
1.36119
1.36354
1.36208
1.37516
1.41579
1.47358
1.54666
1.68926
1.71993
1.68656
1.65143
1.61937
1.57794
1.5705
1.56676
1.56139
1.55395