/*--------------------------------*- C++ -*----------------------------------*\
| =========                 |                                                 |
| \\      /  F ield         | OpenFOAM: The Open Source CFD Toolbox           |
|  \\    /   O peration     | Version:  v2106                                 |
|   \\  /    A nd           | Website:  www.openfoam.com                      |
|    \\/     M anipulation  |                                                 |
\*---------------------------------------------------------------------------*/
FoamFile
{
    version     2.0;
    format      ascii;
    arch        "LSB;label=32;scalar=64";
    class       volVectorField;
    location    "17";
    object      U;
}
// * * * * * * * * * * * * * * * * * * * * * * * * * * * * * * * * * * * * * //

dimensions      [0 1 -1 0 0 0 0];

internalField   nonuniform List<vector> 
5250
(
(3 -2.91321e-15 0)
(3 4.21313e-15 0)
(3 6.41184e-14 0)
(3 2.08204e-13 0)
(3 5.06944e-12 0)
(3 1.59523e-11 0)
(3 4.13443e-10 0)
(3 1.20104e-09 0)
(3 3.38226e-08 0)
(3.00001 1.20628e-07 0)
(3.00006 2.62014e-06 0)
(3.00067 1.37722e-05 0)
(3.00561 0.000189884 0)
(3.06514 0.00181291 0)
(2.68974 0.00187362 0)
(1.22527 0.0399914 0)
(0.270155 0.0170639 0)
(0.544358 0.0201101 0)
(0.438474 0.0205745 0)
(0.370798 0.0208603 0)
(0.320912 0.0234536 0)
(0.252789 0.0250778 0)
(0.188889 0.0267857 0)
(0.117115 0.0289529 0)
(0.0454696 0.0372214 0)
(3 -6.16416e-15 0)
(3 7.74261e-15 0)
(3 1.8698e-13 0)
(3 1.41797e-13 0)
(3 1.44217e-11 0)
(3 -1.2759e-11 0)
(3 1.25423e-09 0)
(3 -2.60112e-09 0)
(3 1.06805e-07 0)
(3.00001 1.06065e-07 0)
(3.00006 8.35531e-06 0)
(3.00068 3.53501e-05 0)
(3.0052 0.000614386 0)
(3.06561 0.00578164 0)
(2.69951 0.0087508 0)
(1.25384 0.11969 0)
(0.26152 0.0511904 0)
(0.543188 0.059922 0)
(0.435389 0.0652947 0)
(0.367861 0.0681798 0)
(0.318048 0.0736995 0)
(0.249663 0.0795764 0)
(0.185993 0.0843674 0)
(0.111461 0.0894959 0)
(0.03988 0.098247 0)
(3 -1.55987e-15 0)
(3 3.94325e-15 0)
(3 3.45994e-13 0)
(3 -1.20528e-12 0)
(3 3.11891e-11 0)
(3 -1.73726e-10 0)
(3 2.71428e-09 0)
(3 -1.78765e-08 0)
(3 2.08013e-07 0)
(3.00001 -5.40477e-07 0)
(3.00005 1.49111e-05 0)
(3.00071 1.03293e-05 0)
(3.00435 0.00103206 0)
(3.06657 0.00954767 0)
(2.72457 0.0173202 0)
(1.34395 0.19786 0)
(0.256559 0.0910977 0)
(0.547024 0.0983967 0)
(0.437203 0.106734 0)
(0.369033 0.109829 0)
(0.320095 0.120233 0)
(0.252472 0.129178 0)
(0.187068 0.139393 0)
(0.113364 0.149198 0)
(0.0400954 0.162521 0)
(3 2.47323e-15 0)
(3 5.14283e-15 0)
(3 5.87422e-13 0)
(3 -1.02831e-11 0)
(3 7.07325e-11 0)
(3 -2.57063e-09 0)
(3 7.10571e-09 0)
(3 -2.26911e-07 0)
(3 4.52696e-07 0)
(3.00001 -6.19029e-06 0)
(3.00003 2.23345e-05 0)
(3.00084 -0.000132343 0)
(3.00319 0.00142499 0)
(3.06737 0.01241 0)
(2.75806 0.0253858 0)
(1.45911 0.265282 0)
(0.261922 0.139921 0)
(0.555854 0.141915 0)
(0.447521 0.152994 0)
(0.374107 0.156792 0)
(0.324834 0.170463 0)
(0.255117 0.185829 0)
(0.192143 0.199137 0)
(0.117297 0.211375 0)
(0.0419794 0.227024 0)
(3 -2.64513e-14 0)
(3 2.43241e-14 0)
(3 -3.5681e-13 0)
(3 -1.89691e-11 0)
(3 1.60632e-10 0)
(3 -1.71482e-09 0)
(3 7.91342e-09 0)
(3 7.27013e-10 0)
(3 3.42624e-07 0)
(3.00001 1.44056e-06 0)
(3.00001 2.40896e-05 0)
(3.00087 -0.000880148 0)
(3.00193 0.00185775 0)
(3.06699 0.0145031 0)
(2.80036 0.0332268 0)
(1.62007 0.321124 0)
(0.278711 0.190805 0)
(0.568218 0.185081 0)
(0.465501 0.198292 0)
(0.384923 0.203115 0)
(0.335481 0.219274 0)
(0.269181 0.23536 0)
(0.203707 0.252564 0)
(0.126845 0.275533 0)
(0.0426241 0.296729 0)
(3 -4.10905e-14 0)
(3 1.54574e-13 0)
(3 -2.30774e-12 0)
(3 2.18415e-12 0)
(3 -1.06454e-10 0)
(3 -5.03e-10 0)
(3 6.78876e-09 0)
(3 -2.37576e-08 0)
(3 4.11297e-07 0)
(3.00001 -2.90001e-06 0)
(3.00002 6.48168e-05 0)
(3.00049 -0.00139307 0)
(3.0007 0.00196553 0)
(3.06516 0.0150053 0)
(2.8469 0.0359156 0)
(1.85364 0.358602 0)
(0.317868 0.257361 0)
(0.587863 0.234951 0)
(0.496154 0.249807 0)
(0.403121 0.255233 0)
(0.353458 0.269249 0)
(0.281051 0.293453 0)
(0.213245 0.320489 0)
(0.133452 0.346268 0)
(0.0489559 0.371091 0)
(3 -4.55251e-15 0)
(3 1.56852e-13 0)
(3 1.22266e-12 0)
(3 1.52489e-11 0)
(3 -1.23104e-10 0)
(3 -2.58858e-10 0)
(3 6.45663e-09 0)
(3 3.31503e-09 0)
(3 3.95141e-07 0)
(3 -6.40224e-06 0)
(3.00001 2.27974e-05 0)
(3.00047 0.000135717 0)
(2.99959 0.00146656 0)
(3.0604 0.013255 0)
(2.89363 0.0351243 0)
(2.10007 0.342987 0)
(0.409389 0.328235 0)
(0.624377 0.29055 0)
(0.54736 0.300345 0)
(0.439607 0.312646 0)
(0.3878 0.322641 0)
(0.305895 0.350977 0)
(0.256718 0.373609 0)
(0.14422 0.420638 0)
(0.0718678 0.455027 0)
(3 2.09907e-14 0)
(3 3.04398e-15 0)
(3 1.45634e-12 0)
(3 5.83754e-12 0)
(3 9.85266e-11 0)
(3 6.81854e-10 0)
(3 3.40751e-09 0)
(3 6.78134e-09 0)
(3 2.715e-07 0)
(3.00002 7.92723e-07 0)
(2.99993 1.72193e-05 0)
(3.00087 9.87355e-05 0)
(2.99887 0.00120328 0)
(3.05314 0.0120553 0)
(2.93503 0.0468887 0)
(2.22097 0.286405 0)
(0.497958 0.392855 0)
(0.653064 0.359493 0)
(0.592638 0.368599 0)
(0.494842 0.375146 0)
(0.423474 0.384753 0)
(0.353673 0.407985 0)
(0.259013 0.466399 0)
(0.175462 0.506815 0)
(0.0726577 0.561363 0)
(3 1.5551e-14 0)
(3 2.48072e-14 0)
(3 4.86458e-13 0)
(3 6.61549e-12 0)
(3 3.588e-11 0)
(3 5.25318e-10 0)
(3 -1.13423e-08 0)
(3 -1.11996e-08 0)
(3 1.33519e-07 0)
(3.00002 1.15363e-06 0)
(2.99993 1.35153e-05 0)
(3.00077 0.000118439 0)
(2.99864 0.00116957 0)
(3.04441 0.0104763 0)
(2.97587 0.055838 0)
(2.33812 0.247569 0)
(0.585854 0.436621 0)
(0.673836 0.410608 0)
(0.639317 0.413555 0)
(0.550419 0.448477 0)
(0.485624 0.447572 0)
(0.391542 0.488334 0)
(0.337463 0.530442 0)
(0.227991 0.589015 0)
(0.147966 0.685807 0)
(3 3.02898e-14 0)
(3 -2.51311e-14 0)
(3 1.43374e-12 0)
(3 4.32278e-12 0)
(3 9.96724e-11 0)
(3 6.03843e-10 0)
(3 -3.40943e-09 0)
(3 2.9858e-08 0)
(3 -4.66148e-08 0)
(3.00002 1.63153e-06 0)
(2.99991 3.05389e-06 0)
(3.00085 0.000114527 0)
(2.99743 0.00060012 0)
(3.04259 0.00962084 0)
(3.00861 0.0582685 0)
(2.45939 0.222599 0)
(0.677638 0.487035 0)
(0.670636 0.443118 0)
(0.662655 0.469847 0)
(0.615125 0.498943 0)
(0.552362 0.516725 0)
(0.453863 0.562105 0)
(0.384748 0.627071 0)
(0.299495 0.708084 0)
(0.0966732 0.922014 0)
(3 2.43483e-14 0)
(3 1.72529e-14 0)
(3 2.80222e-12 0)
(3 -3.42905e-12 0)
(3 2.13266e-10 0)
(3 -2.15017e-09 0)
(3 9.28147e-09 0)
(3 9.40762e-08 0)
(3 -1.06831e-07 0)
(3 2.30665e-06 0)
(3.00002 -8.46497e-06 0)
(3.00008 0.00010265 0)
(3.0017 0.00210431 0)
(3.01587 -0.0248601 0)
(3.03261 0.0642502 0)
(2.58202 0.215157 0)
(0.845436 0.554302 0)
(0.631818 0.446159 0)
(0.680474 0.47642 0)
(0.656232 0.568308 0)
(0.615311 0.590791 0)
(0.532552 0.640315 0)
(0.474771 0.71179 0)
(0.480592 0.813014 0)
(0.419908 1.09438 0)
(3 -3.76019e-16 0)
(3 3.02572e-14 0)
(3 1.25967e-13 0)
(3 1.3375e-12 0)
(3 3.88098e-11 0)
(3 2.52441e-10 0)
(3 3.04007e-09 0)
(3 -1.66922e-08 0)
(3 1.41867e-07 0)
(3 2.40124e-06 0)
(3.00001 -2.39302e-05 0)
(3.00003 0.000179902 0)
(3.0013 -0.0059415 0)
(3.00255 0.00917123 0)
(3.06469 0.0591428 0)
(2.71561 0.214702 0)
(1.11855 0.652835 0)
(0.560151 0.458218 0)
(0.664992 0.494173 0)
(0.665494 0.580937 0)
(0.675902 0.646986 0)
(0.635092 0.707908 0)
(0.593303 0.778867 0)
(0.687195 0.870426 0)
(0.679179 1.02476 0)
(3 7.93407e-15 0)
(3 -1.43979e-14 0)
(3 8.33241e-14 0)
(3 2.32796e-13 0)
(3 7.37694e-12 0)
(3 -3.31435e-11 0)
(3 5.69845e-10 0)
(3 1.8877e-08 0)
(3 7.04811e-08 0)
(3 1.09244e-06 0)
(2.99998 6.93265e-06 0)
(3.00021 6.77754e-05 0)
(2.99948 0.000602394 0)
(3.00205 0.00427854 0)
(3.07366 0.0430594 0)
(2.86034 0.165953 0)
(1.59684 0.764003 0)
(0.549441 0.496337 0)
(0.66952 0.505769 0)
(0.675103 0.581774 0)
(0.680813 0.663541 0)
(0.716829 0.744683 0)
(0.719032 0.813086 0)
(0.811185 0.903355 0)
(0.882911 0.920742 0)
(3 5.86908e-15 0)
(3 -6.59466e-15 0)
(3 3.69058e-13 0)
(3 2.09883e-12 0)
(3 -1.42053e-12 0)
(3 -1.06297e-11 0)
(3 -1.39671e-10 0)
(3 -2.57275e-09 0)
(3 -3.07621e-08 0)
(3 6.79706e-07 0)
(3.00002 7.94691e-07 0)
(2.99994 4.45359e-05 0)
(3.00092 0.000179277 0)
(2.99932 0.0030363 0)
(3.05947 0.0277346 0)
(2.94697 0.0961477 0)
(2.16648 0.78417 0)
(0.666762 0.590349 0)
(0.7121 0.547668 0)
(0.706817 0.584868 0)
(0.713904 0.651704 0)
(0.758072 0.728515 0)
(0.801291 0.80317 0)
(0.886244 0.888328 0)
(0.977433 0.887879 0)
(3 -2.01355e-15 0)
(3 1.65116e-14 0)
(3 1.95755e-13 0)
(3 1.79986e-12 0)
(3 1.75442e-11 0)
(3 2.06092e-10 0)
(3 1.23424e-09 0)
(3 -1.74172e-09 0)
(3 5.95354e-08 0)
(3 1.0014e-07 0)
(3.00002 3.50058e-06 0)
(2.9999 1.95512e-05 0)
(3.00101 0.000248664 0)
(2.99731 0.00190313 0)
(3.05107 0.0205833 0)
(2.99724 0.0876005 0)
(2.51503 0.647093 0)
(0.907831 0.704464 0)
(0.787481 0.595645 0)
(0.759453 0.610589 0)
(0.76037 0.656667 0)
(0.79604 0.723653 0)
(0.846184 0.798029 0)
(0.952915 0.858505 0)
(1.04267 0.875563 0)
(3 -1.08175e-16 0)
(3 2.1784e-14 0)
(3 2.15795e-14 0)
(3 1.62987e-12 0)
(3 3.75314e-12 0)
(3 1.28709e-10 0)
(3 -9.61692e-10 0)
(3 7.04447e-09 0)
(3 1.6012e-07 0)
(3 -3.81657e-08 0)
(3 2.01105e-06 0)
(3.00001 1.16082e-05 0)
(3.00017 -3.54548e-05 0)
(3.00065 0.00167909 0)
(3.01585 -0.0214585 0)
(3.03802 0.102708 0)
(2.73381 0.50732 0)
(1.25859 0.821367 0)
(0.816804 0.640666 0)
(0.819749 0.642156 0)
(0.820865 0.671938 0)
(0.843609 0.7208 0)
(0.894422 0.772148 0)
(0.974482 0.832438 0)
(1.0851 0.84585 0)
(3 2.57643e-16 0)
(3 -1.86742e-15 0)
(3 5.71952e-14 0)
(3 2.98195e-13 0)
(3 -8.54745e-12 0)
(3 3.07812e-11 0)
(3 1.28954e-10 0)
(3 1.3763e-09 0)
(3 2.77078e-08 0)
(3 1.36919e-07 0)
(2.99999 1.81241e-06 0)
(3.00006 1.20818e-05 0)
(2.99975 0.00013141 0)
(3.0023 0.000981701 0)
(2.99566 0.00977893 0)
(3.07991 0.0681966 0)
(2.92394 0.34774 0)
(1.79564 0.926742 0)
(0.824463 0.699297 0)
(0.855113 0.686812 0)
(0.869339 0.701557 0)
(0.884531 0.733601 0)
(0.930154 0.763557 0)
(0.997695 0.808251 0)
(1.09861 0.82537 0)
(3 1.2461e-15 0)
(3 -2.45762e-15 0)
(3 8.24689e-14 0)
(3 3.08278e-13 0)
(3 4.7782e-12 0)
(3 3.1961e-11 0)
(3 6.30509e-12 0)
(3 2.65183e-09 0)
(3 1.50371e-08 0)
(3 1.47759e-07 0)
(3 1.1905e-07 0)
(3.00003 7.21644e-06 0)
(2.9999 2.72984e-05 0)
(3.00124 0.000491393 0)
(2.99849 0.00330311 0)
(3.06726 0.0382363 0)
(3.01685 0.201456 0)
(2.38474 0.921237 0)
(0.998753 0.778762 0)
(0.918229 0.723789 0)
(0.922486 0.707312 0)
(0.939418 0.726956 0)
(0.975488 0.752019 0)
(1.02787 0.78873 0)
(1.11524 0.80334 0)
(3 -4.71184e-17 0)
(3 1.11334e-14 0)
(3 5.34582e-14 0)
(3 -1.7665e-14 0)
(3 1.63967e-12 0)
(3 3.91176e-12 0)
(3 2.56197e-10 0)
(3 1.07639e-09 0)
(3 -1.46686e-09 0)
(3 8.40727e-08 0)
(3 5.9852e-09 0)
(3 1.89464e-06 0)
(3.00001 2.18074e-05 0)
(3.00023 9.8285e-06 0)
(3.00099 0.00250176 0)
(3.02075 -0.0133295 0)
(3.05753 0.148662 0)
(2.74124 0.727257 0)
(1.35542 0.874191 0)
(0.982704 0.758427 0)
(0.976777 0.732284 0)
(0.990896 0.741913 0)
(1.02011 0.758116 0)
(1.06247 0.781962 0)
(1.13418 0.789206 0)
(3 7.2179e-17 0)
(3 1.72135e-15 0)
(3 6.86395e-15 0)
(3 1.04728e-13 0)
(3 4.58005e-13 0)
(3 6.79091e-12 0)
(3 3.34245e-11 0)
(3 4.62242e-10 0)
(3 3.04614e-09 0)
(3 3.03741e-08 0)
(3 1.9137e-07 0)
(2.99999 2.23715e-06 0)
(3.00009 1.81552e-05 0)
(2.9996 0.000171195 0)
(3.00351 0.00141775 0)
(2.99207 0.0130086 0)
(3.12826 0.0984298 0)
(2.98906 0.498335 0)
(1.94301 0.950372 0)
(1.02071 0.806055 0)
(1.02487 0.766893 0)
(1.04159 0.769661 0)
(1.06829 0.775493 0)
(1.10267 0.785654 0)
(1.15926 0.784123 0)
(3 3.6671e-16 0)
(3 -5.17501e-15 0)
(3 2.58701e-14 0)
(3 1.0753e-13 0)
(3 1.79211e-12 0)
(3 1.20349e-11 0)
(3 -1.92876e-13 0)
(3 3.03184e-10 0)
(3 1.27193e-09 0)
(3 2.72025e-08 0)
(3 3.59912e-07 0)
(3 -2.7906e-07 0)
(3.00001 8.74004e-06 0)
(3.00004 1.48633e-05 0)
(3.00042 0.000241307 0)
(3.00306 0.00900588 0)
(3.03728 -0.112506 0)
(3.0675 0.315059 0)
(2.52036 0.997504 0)
(1.23084 0.887077 0)
(1.08078 0.829409 0)
(1.08137 0.789482 0)
(1.1038 0.786478 0)
(1.13778 0.790253 0)
(1.18742 0.784137 0)
(3 1.83044e-16 0)
(3 6.56579e-16 0)
(3 2.84722e-15 0)
(3 2.84824e-14 0)
(3 9.06517e-14 0)
(3 1.99577e-12 0)
(3 1.32534e-11 0)
(3 8.61874e-11 0)
(3 5.84927e-10 0)
(3 8.51598e-09 0)
(3 -6.34266e-08 0)
(3 5.00439e-07 0)
(3.00001 3.01869e-06 0)
(3.00005 4.03357e-05 0)
(2.99866 0.000348848 0)
(3.01006 0.00289321 0)
(2.96739 0.0241422 0)
(3.2038 0.187974 0)
(2.93958 0.759762 0)
(1.70909 0.958005 0)
(1.16154 0.861086 0)
(1.13594 0.807215 0)
(1.14977 0.799068 0)
(1.17626 0.795025 0)
(1.21668 0.787788 0)
(3 3.71595e-16 0)
(3 5.54267e-17 0)
(3 4.03758e-15 0)
(3 1.71522e-14 0)
(3 2.14803e-13 0)
(3 -1.2683e-12 0)
(3 7.21973e-12 0)
(3 1.20142e-10 0)
(3 3.8063e-10 0)
(3 3.96797e-09 0)
(3 4.9952e-08 0)
(3 -7.90087e-08 0)
(3 3.46613e-06 0)
(3.00001 3.3146e-05 0)
(3.00006 5.42743e-06 0)
(3.00078 0.000612052 0)
(3.00494 0.0131674 0)
(3.05622 -0.16272 0)
(3.08734 0.514516 0)
(2.32775 1.05435 0)
(1.25065 0.902856 0)
(1.18516 0.869254 0)
(1.18754 0.822314 0)
(1.20878 0.809876 0)
(1.24365 0.796977 0)
(3 -4.85627e-17 0)
(3 -4.61096e-17 0)
(3 5.67642e-16 0)
(3 6.31711e-15 0)
(3 3.38656e-14 0)
(3 4.08333e-13 0)
(3 2.7278e-12 0)
(3 2.66773e-11 0)
(3 1.79849e-10 0)
(3 1.53409e-09 0)
(3 1.0642e-08 0)
(3 1.18257e-07 0)
(3 9.72975e-07 0)
(3.00004 8.58142e-06 0)
(2.99997 5.74398e-05 0)
(2.99813 0.00057441 0)
(3.01414 0.00456635 0)
(2.95349 0.0365504 0)
(3.26586 0.290873 0)
(2.9229 0.936917 0)
(1.66446 0.977753 0)
(1.25734 0.90303 0)
(1.23585 0.839337 0)
(1.24988 0.826422 0)
(1.27594 0.810902 0)
(3 5.13222e-17 0)
(3 2.81969e-16 0)
(3 4.83168e-16 0)
(3 9.21825e-15 0)
(3 -1.34999e-14 0)
(3 3.43464e-13 0)
(3 1.38502e-12 0)
(3 2.11903e-11 0)
(3 4.969e-11 0)
(3 1.51391e-09 0)
(3 -8.50542e-09 0)
(3 1.05515e-07 0)
(3 1.41627e-07 0)
(3 6.17108e-06 0)
(3.00002 5.10022e-05 0)
(3.00007 3.57395e-05 0)
(3.00124 0.000581481 0)
(3.0054 0.0123924 0)
(3.08552 -0.156735 0)
(3.1352 0.661176 0)
(2.3244 1.06564 0)
(1.34017 0.924029 0)
(1.28121 0.888421 0)
(1.29185 0.841171 0)
(1.31167 0.822977 0)
(3 -5.13189e-17 0)
(3 4.20659e-16 0)
(3 -3.51379e-16 0)
(3 8.58517e-16 0)
(3 7.54487e-15 0)
(3 5.67403e-14 0)
(3 6.65685e-13 0)
(3 2.98596e-12 0)
(3 4.86772e-11 0)
(3 3.12397e-10 0)
(3 2.84198e-09 0)
(3 2.47749e-08 0)
(3 1.97656e-07 0)
(3 1.74248e-06 0)
(3.00002 -3.29943e-05 0)
(3.00003 0.000110283 0)
(2.99806 0.00080939 0)
(3.01487 0.00605926 0)
(2.95269 0.0490749 0)
(3.30458 0.363637 0)
(2.92955 1.01766 0)
(1.71497 0.998293 0)
(1.35339 0.938047 0)
(1.33033 0.86989 0)
(1.34472 0.851859 0)
(3 -5.13268e-17 0)
(3 -6.55646e-17 0)
(3 -5.33706e-17 0)
(3 5.37437e-17 0)
(3 -4.0872e-15 0)
(3 4.23681e-14 0)
(3 3.24033e-13 0)
(3 4.153e-12 0)
(3 -5.95735e-12 0)
(3 1.80878e-10 0)
(3 -9.45266e-10 0)
(3 -7.65162e-09 0)
(3 1.23641e-07 0)
(3 9.66635e-08 0)
(3 7.86774e-06 0)
(3.00003 4.72315e-05 0)
(3.00009 5.75791e-05 0)
(3.00156 3.12211e-05 0)
(3.00528 0.0124083 0)
(3.11106 -0.136674 0)
(3.18551 0.733523 0)
(2.38116 1.0809 0)
(1.44181 0.948055 0)
(1.38101 0.910278 0)
(1.38941 0.860732 0)
(3 2.59662e-16 0)
(3 4.1577e-16 0)
(3 5.93028e-16 0)
(3 8.36441e-16 0)
(3 1.96735e-15 0)
(3 1.11494e-14 0)
(3 9.21338e-14 0)
(3 6.05071e-13 0)
(3 6.69491e-12 0)
(3 3.84483e-11 0)
(3 4.4485e-10 0)
(3 2.9737e-09 0)
(3 2.49559e-08 0)
(3 2.19415e-07 0)
(3 1.28077e-06 0)
(3.00005 1.44459e-05 0)
(2.99996 8.98966e-05 0)
(2.99788 0.00092764 0)
(3.01577 0.00674256 0)
(2.95439 0.0550726 0)
(3.32257 0.394628 0)
(2.9693 1.05856 0)
(1.82043 1.02592 0)
(1.44843 0.982789 0)
(1.42091 0.898392 0)
(3 1.23457e-17 0)
(3 -5.65029e-17 0)
(3 -1.08856e-16 0)
(3 1.59994e-16 0)
(3 1.17309e-15 0)
(3 -3.65415e-16 0)
(3 1.79426e-14 0)
(3 4.00861e-13 0)
(3 3.47054e-12 0)
(3 2.48527e-11 0)
(3 2.9912e-10 0)
(3 4.25713e-09 0)
(3 9.95032e-10 0)
(3 1.31435e-07 0)
(3 9.02272e-08 0)
(3 9.63362e-06 0)
(3.00003 3.57348e-05 0)
(3.00008 0.00014128 0)
(3.00172 -0.00403267 0)
(3.00354 0.0110061 0)
(3.1306 -0.0444604 0)
(3.27186 0.698217 0)
(2.50679 1.06014 0)
(1.56429 0.958347 0)
(1.48771 0.942996 0)
(3 -2.06998e-16 0)
(3 -5.23994e-16 0)
(3 -7.29651e-16 0)
(3 -1.31931e-15 0)
(3 -1.02025e-15 0)
(3 9.5699e-16 0)
(3 1.82795e-14 0)
(3 1.51494e-13 0)
(3 -1.75457e-13 0)
(3 9.82068e-12 0)
(3 6.91334e-11 0)
(3 5.89943e-10 0)
(3 3.90258e-09 0)
(3 3.27923e-08 0)
(3 2.63514e-07 0)
(3 2.24242e-06 0)
(3.00001 -4.3335e-06 0)
(3.00004 0.000109444 0)
(2.99825 0.000942922 0)
(3.01326 0.00640922 0)
(2.97407 0.0542013 0)
(3.31648 0.405313 0)
(3.04964 1.04588 0)
(1.98034 1.04876 0)
(1.56254 0.99737 0)
(3 5.13189e-17 0)
(3 4.4048e-17 0)
(3 -4.9414e-17 0)
(3 -1.93536e-16 0)
(3 -1.09215e-17 0)
(3 -4.04425e-16 0)
(3 1.19899e-14 0)
(3 7.00743e-14 0)
(3 7.16573e-13 0)
(3 5.37519e-12 0)
(3 6.50941e-12 0)
(3 3.46553e-10 0)
(3 -3.09373e-10 0)
(3 1.29927e-08 0)
(3 7.01998e-08 0)
(3 6.98036e-07 0)
(2.99999 5.71504e-06 0)
(3.00005 3.54952e-05 0)
(2.99997 -2.87759e-05 0)
(3.00209 -0.00706825 0)
(3.00254 0.0118267 0)
(3.13461 -0.00460805 0)
(3.31789 0.647456 0)
(2.66123 1.06746 0)
(1.73203 0.98008 0)
(3 -1.97522e-33 0)
(3 -1.01985e-16 0)
(3 1.0273e-16 0)
(3 2.56001e-16 0)
(3 3.33212e-16 0)
(3 4.29485e-16 0)
(3 2.8028e-15 0)
(3 1.27969e-14 0)
(3 1.82263e-13 0)
(3 8.26329e-14 0)
(3 8.21047e-12 0)
(3 4.85983e-11 0)
(3 7.02645e-12 0)
(3 3.90632e-09 0)
(3 2.38728e-08 0)
(3 3.28011e-07 0)
(3 -4.95747e-07 0)
(3 9.71513e-06 0)
(3.00003 7.84558e-05 0)
(2.99889 0.000785671 0)
(3.01057 0.00546968 0)
(2.97957 0.0481809 0)
(3.32416 0.356654 0)
(3.15284 0.961331 0)
(2.2384 1.06594 0)
(3 -1.02638e-16 0)
(3 -2.61744e-16 0)
(3 -2.45633e-16 0)
(3 -2.97246e-16 0)
(3 -3.26695e-16 0)
(3 -5.53986e-16 0)
(3 5.98395e-16 0)
(3 6.30708e-15 0)
(3 6.21469e-14 0)
(3 -2.69138e-13 0)
(3 2.60221e-12 0)
(3 1.1419e-11 0)
(3 8.46062e-11 0)
(3 5.78701e-10 0)
(3 3.73869e-09 0)
(3 9.70723e-09 0)
(3 -6.843e-08 0)
(3 -1.98476e-06 0)
(3.00002 0.000110181 0)
(3.00004 -0.000249652 0)
(3.00122 -0.00198323 0)
(3.00308 0.00835949 0)
(3.10379 0.0715241 0)
(3.45735 0.573393 0)
(2.95358 1.00657 0)
(3 -2.56595e-16 0)
(3 5.13191e-17 0)
(3 -3.59232e-16 0)
(3 -4.79343e-16 0)
(3 -3.04745e-16 0)
(3 -8.48405e-16 0)
(3 -1.37366e-15 0)
(3 8.42524e-16 0)
(3 1.05654e-14 0)
(3 7.49431e-14 0)
(3 7.19429e-13 0)
(3 6.16115e-12 0)
(3 -3.52402e-11 0)
(3 4.34238e-10 0)
(3 1.66755e-09 0)
(3 1.88118e-08 0)
(3 1.17311e-07 0)
(3 9.84577e-07 0)
(3.00002 -9.99146e-06 0)
(3.00007 6.97521e-05 0)
(2.99951 0.000657399 0)
(3.00155 -0.000517295 0)
(3.01099 0.0455643 0)
(3.19129 -0.247894 0)
(3.2731 0.885435 0)
(3 -6.04381e-17 0)
(3 1.53957e-16 0)
(3 2.56595e-16 0)
(3 2.56595e-16 0)
(3 2.65753e-16 0)
(3 2.68127e-16 0)
(3 3.66637e-16 0)
(3 1.37279e-15 0)
(3 3.88959e-15 0)
(3 1.85727e-14 0)
(3 3.05822e-13 0)
(3 1.33992e-12 0)
(3 1.66226e-11 0)
(3 1.0499e-10 0)
(3 8.66868e-10 0)
(3 1.13714e-08 0)
(3 7.58148e-08 0)
(3 5.30598e-08 0)
(2.99999 3.61727e-06 0)
(3.00004 1.75533e-05 0)
(2.99992 5.57461e-05 0)
(3.00195 0.000963887 0)
(2.99826 0.00674586 0)
(2.9165 0.0654959 0)
(3.44798 0.447676 0)
(3 5.13189e-17 0)
(3 4.704e-17 0)
(3 1.02638e-16 0)
(3 7.64416e-21 0)
(3 5.04311e-20 0)
(3 -2.0147e-16 0)
(3 3.84684e-16 0)
(3 8.02713e-16 0)
(3 1.0677e-15 0)
(3 3.57614e-15 0)
(3 5.48191e-14 0)
(3 5.48902e-13 0)
(3 1.56286e-12 0)
(3 3.62527e-11 0)
(3 2.08067e-10 0)
(3 1.83098e-09 0)
(3 1.1956e-08 0)
(3 1.39515e-07 0)
(3 2.77627e-07 0)
(3 8.18222e-06 0)
(3.00004 5.10866e-05 0)
(2.99999 0.000564563 0)
(3.00274 0.00375514 0)
(3.0018 0.00485379 0)
(3.12941 0.0789131 0)
(3 1.53957e-16 0)
(3 1.53957e-16 0)
(3 -5.13189e-17 0)
(3 2.56595e-16 0)
(3 4.10551e-16 0)
(3 4.95814e-16 0)
(3 7.04196e-16 0)
(3 9.90713e-16 0)
(3 1.52061e-15 0)
(3 1.72008e-15 0)
(3 2.99275e-14 0)
(3 3.46707e-13 0)
(3 9.66417e-13 0)
(3 1.86267e-11 0)
(3 1.07484e-10 0)
(3 9.95227e-10 0)
(3 1.10614e-08 0)
(3 -3.45693e-08 0)
(3 2.86451e-07 0)
(3 8.66842e-07 0)
(3.00001 1.14515e-05 0)
(3.00006 3.03706e-05 0)
(3.00061 0.00149566 0)
(3.00186 -0.00307023 0)
(3.00483 0.0484169 0)
(3 -1.02638e-16 0)
(3 -2.49416e-17 0)
(3 1.40388e-16 0)
(3 3.88848e-16 0)
(3 4.31353e-16 0)
(3 4.94223e-16 0)
(3 5.75301e-16 0)
(3 7.36705e-16 0)
(3 7.11044e-16 0)
(3 1.19382e-15 0)
(3 6.31041e-15 0)
(3 3.7224e-14 0)
(3 6.00399e-13 0)
(3 -2.80894e-12 0)
(3 4.03256e-11 0)
(3 7.91145e-11 0)
(3 8.23676e-10 0)
(3 1.27341e-08 0)
(3 8.31673e-08 0)
(3 6.79421e-07 0)
(3 4.86736e-06 0)
(3.00002 9.29685e-06 0)
(3.00013 0.000225476 0)
(3.00104 0.00129787 0)
(2.99999 0.00755551 0)
(3 5.13189e-17 0)
(3 5.54729e-17 0)
(3 4.71649e-17 0)
(3 1.44826e-16 0)
(3 -4.21885e-17 0)
(3 -1.02638e-16 0)
(3 -1.05698e-16 0)
(3 -1.11958e-17 0)
(3 -1.54465e-16 0)
(3 -3.66385e-16 0)
(3 2.0547e-15 0)
(3 3.57223e-14 0)
(3 -1.13285e-13 0)
(3 9.52505e-14 0)
(3 1.04096e-11 0)
(3 7.69805e-11 0)
(3 5.774e-10 0)
(3 3.56901e-09 0)
(3 8.6791e-09 0)
(3 1.68233e-07 0)
(3 8.09897e-07 0)
(3 8.40589e-06 0)
(3.00005 -0.000126133 0)
(3.00013 0.00045633 0)
(3.00217 0.00311191 0)
(3 1.12735e-16 0)
(3 3.06921e-16 0)
(3 3.4537e-16 0)
(3 5.12986e-17 0)
(3 5.14786e-17 0)
(3 -2.56551e-16 0)
(3 -4.64292e-16 0)
(3 -7.55403e-16 0)
(3 -9.83895e-16 0)
(3 -1.44516e-15 0)
(3 -7.43718e-16 0)
(3 3.87934e-15 0)
(3 4.99706e-14 0)
(3 -1.20903e-13 0)
(3 3.84547e-12 0)
(3 -1.69624e-11 0)
(3 2.66834e-10 0)
(3 -1.11238e-09 0)
(3 6.73683e-09 0)
(3 -4.76523e-08 0)
(3 3.65208e-07 0)
(3 3.97667e-07 0)
(2.99999 1.65213e-05 0)
(3.00007 -0.000134592 0)
(3.00056 0.00282066 0)
(3 -5.13189e-17 0)
(3 -2.56595e-16 0)
(3 -2.56595e-16 0)
(3 -3.07913e-16 0)
(3 -2.56595e-16 0)
(3 -1.28998e-16 0)
(3 -1.75212e-16 0)
(3 -1.86202e-17 0)
(3 5.05311e-16 0)
(3 9.11396e-16 0)
(3 1.3611e-15 0)
(3 2.45072e-15 0)
(3 1.01741e-14 0)
(3 1.03685e-13 0)
(3 7.30375e-13 0)
(3 5.14444e-12 0)
(3 3.8033e-11 0)
(3 2.66202e-10 0)
(3 1.51938e-09 0)
(3 1.28514e-08 0)
(3 8.03583e-08 0)
(3 5.32161e-07 0)
(3 9.24182e-07 0)
(3.00008 2.73748e-05 0)
(2.99987 0.000163829 0)
(3 2.0624e-17 0)
(3 -1.25762e-16 0)
(3 1.02239e-16 0)
(3 3.07462e-16 0)
(3 4.12303e-16 0)
(3 3.95435e-16 0)
(3 4.61874e-16 0)
(3 5.13032e-16 0)
(3 4.2077e-16 0)
(3 6.19452e-16 0)
(3 8.55789e-16 0)
(3 1.5328e-15 0)
(3 7.89058e-15 0)
(3 1.33221e-14 0)
(3 3.52678e-13 0)
(3 -1.20087e-12 0)
(3 1.58858e-11 0)
(3 -9.84408e-11 0)
(3 8.75149e-10 0)
(3 -3.6068e-09 0)
(3 4.25635e-08 0)
(3 -4.28824e-08 0)
(3 1.77549e-06 0)
(3 1.97051e-05 0)
(3.00004 0.000209243 0)
(3 1.53957e-16 0)
(3 2.90643e-16 0)
(3 1.82139e-16 0)
(3 1.02638e-16 0)
(3 1.53957e-16 0)
(3 2.53368e-18 0)
(3 1.99338e-16 0)
(3 1.38681e-16 0)
(3 -1.98422e-17 0)
(3 -1.0271e-16 0)
(3 -7.96667e-17 0)
(3 -3.21693e-16 0)
(3 4.33697e-16 0)
(3 8.44564e-15 0)
(3 6.40851e-14 0)
(3 4.75523e-13 0)
(3 1.67167e-13 0)
(3 2.23737e-11 0)
(3 1.54601e-10 0)
(3 7.51953e-11 0)
(3 6.9982e-09 0)
(3 5.48399e-08 0)
(3 3.37312e-07 0)
(3 2.48266e-06 0)
(3.00003 3.96837e-06 0)
(3 -1.02638e-16 0)
(3 -3.59232e-16 0)
(3 -3.77615e-16 0)
(3 -7.69784e-16 0)
(3 -7.69784e-16 0)
(3 -6.91854e-16 0)
(3 -6.31939e-16 0)
(3 -5.73422e-16 0)
(3 -6.24903e-16 0)
(3 -5.70259e-16 0)
(3 -7.39258e-16 0)
(3 -8.87158e-16 0)
(3 -1.18086e-16 0)
(3 -2.19591e-15 0)
(3 4.29468e-14 0)
(3 3.30627e-14 0)
(3 7.7913e-13 0)
(3 2.98545e-12 0)
(3 5.16693e-11 0)
(3 9.61082e-11 0)
(3 2.51156e-09 0)
(3 3.48234e-09 0)
(3 -3.67978e-08 0)
(3 5.71987e-07 0)
(3 5.79455e-06 0)
(3 -1.02638e-16 0)
(3 -1.53957e-16 0)
(3 -1.53957e-16 0)
(3 -5.13189e-17 0)
(3 -5.13189e-17 0)
(3 -1.02638e-16 0)
(3 -5.13189e-17 0)
(3 -5.64508e-16 0)
(3 -7.18465e-16 0)
(3 -9.23846e-16 0)
(3 -1.10991e-15 0)
(3 -9.52924e-16 0)
(3 -8.40577e-16 0)
(3 -5.62523e-16 0)
(3 1.93103e-15 0)
(3 1.20353e-14 0)
(3 -7.05484e-14 0)
(3 8.17596e-13 0)
(3 3.24801e-12 0)
(3 3.93896e-11 0)
(3 3.08879e-10 0)
(3 2.22645e-09 0)
(3 1.61577e-08 0)
(3 9.29416e-08 0)
(3 4.64214e-07 0)
(3 5.13189e-17 0)
(3 -5.13189e-17 0)
(3 5.13189e-17 0)
(3 9.19145e-18 0)
(3 9.34464e-17 0)
(3 -1.02638e-16 0)
(3 -1.02638e-16 0)
(3 -1.02638e-16 0)
(3 -1.02638e-16 0)
(3 -3.07913e-16 0)
(3 -3.50331e-16 0)
(3 -3.47172e-16 0)
(3 -3.40851e-16 0)
(3 -4.20797e-16 0)
(3 1.75835e-15 0)
(3 2.63508e-15 0)
(3 -3.18578e-15 0)
(3 3.02552e-13 0)
(3 2.30487e-12 0)
(3 1.22555e-11 0)
(3 9.00061e-11 0)
(3 -1.01067e-10 0)
(3 5.53889e-10 0)
(3 2.157e-08 0)
(3 2.03209e-07 0)
(3 5.13189e-17 0)
(3 1.55253e-16 0)
(3 5.00227e-17 0)
(3 6.51061e-17 0)
(3 3.75317e-17 0)
(3 -2.56595e-16 0)
(3 -5.13189e-16 0)
(3 -6.67146e-16 0)
(3 -8.72421e-16 0)
(3 -8.72421e-16 0)
(3 -8.72421e-16 0)
(3 -9.1957e-16 0)
(3 -9.38599e-16 0)
(3 -9.04397e-16 0)
(3 -6.21667e-16 0)
(3 -6.29138e-16 0)
(3 -3.69176e-16 0)
(3 2.76906e-14 0)
(3 4.608e-13 0)
(3 5.2755e-12 0)
(3 2.07986e-11 0)
(3 2.15102e-10 0)
(3 1.26377e-09 0)
(3 4.63049e-09 0)
(3 1.97931e-08 0)
(3 5.13189e-17 0)
(3 2.05276e-16 0)
(3 3.07913e-16 0)
(3 3.07913e-16 0)
(3 4.10551e-16 0)
(3 4.6187e-16 0)
(3 4.6187e-16 0)
(3 4.56793e-16 0)
(3 5.76177e-16 0)
(3 2.44723e-16 0)
(3 2.99583e-16 0)
(3 -3.2029e-16 0)
(3 -5.39158e-16 0)
(3 -7.88341e-16 0)
(3 -6.50909e-16 0)
(3 -3.69861e-16 0)
(3 5.40147e-15 0)
(3 4.24792e-14 0)
(3 1.95998e-14 0)
(3 1.84459e-12 0)
(3 7.10311e-12 0)
(3 9.62529e-11 0)
(3 5.66713e-10 0)
(3 2.61284e-09 0)
(3 2.80564e-09 0)
(3 -5.13189e-17 0)
(3 -1.02638e-16 0)
(3 -3.07913e-16 0)
(3 -3.74676e-16 0)
(3 -4.49955e-16 0)
(3 -5.28839e-16 0)
(3 -2.92263e-16 0)
(3 -1.09732e-16 0)
(3 -5.13189e-17 0)
(3 -1.53957e-16 0)
(3 -2.05276e-16 0)
(3 -3.59232e-16 0)
(3 -3.59106e-16 0)
(3 -5.01131e-16 0)
(3 -5.49059e-16 0)
(3 -6.81227e-16 0)
(3 8.14451e-15 0)
(3 2.80174e-14 0)
(3 -6.56161e-14 0)
(3 7.33174e-13 0)
(3 -1.71587e-12 0)
(3 2.21779e-11 0)
(3 1.53037e-10 0)
(3 4.05987e-10 0)
(3 1.94739e-09 0)
(3 -1.02638e-16 0)
(3 -2.56595e-16 0)
(3 -5.64508e-16 0)
(3 -7.18465e-16 0)
(3 -8.72421e-16 0)
(3 -9.75059e-16 0)
(3 -9.11147e-16 0)
(3 -1.15294e-15 0)
(3 -1.10509e-15 0)
(3 -9.2374e-16 0)
(3 -6.15827e-16 0)
(3 -2.56595e-16 0)
(3 -2.33032e-17 0)
(3 2.47306e-16 0)
(3 2.33487e-16 0)
(3 2.87794e-17 0)
(3 7.40997e-15 0)
(3 1.87115e-14 0)
(3 -5.29995e-14 0)
(3 2.53793e-13 0)
(3 -2.85615e-12 0)
(3 -2.6887e-11 0)
(3 3.00913e-11 0)
(3 1.20035e-10 0)
(3 -4.59187e-10 0)
(1.18473 1.07531 0)
(0.541493 0.636105 0)
(-0.600716 0.0313426 0)
(-0.447074 -0.166064 0)
(-0.597062 -0.157708 0)
(-0.47833 -0.0743859 0)
(-0.724496 0.0827038 0)
(-1.01874 0.137768 0)
(-1.19171 0.133793 0)
(-1.26399 0.0875703 0)
(-1.28222 0.053122 0)
(-1.27636 0.024624 0)
(-1.27387 0.0253586 0)
(-1.30331 0.0148948 0)
(-1.38369 -0.00486502 0)
(-1.4455 -0.0219624 0)
(-1.4846 -0.0207874 0)
(-1.5017 -0.0170319 0)
(-1.50422 -0.014445 0)
(-1.49858 -0.0120278 0)
(-1.49662 -0.01022 0)
(-1.49539 -0.00983518 0)
(-1.49959 -0.00694593 0)
(-1.50333 -0.00614427 0)
(-1.51332 -0.0027784 0)
(-1.52047 0.000217987 0)
(-1.52514 0.00419935 0)
(-1.52854 0.00473035 0)
(-1.52929 0.00461428 0)
(-1.52464 0.00157763 0)
(-1.51829 0.00281755 0)
(-1.49336 0.00244299 0)
(-1.47158 0.00595809 0)
(-1.41856 0.00866067 0)
(-1.34825 0.00383677 0)
(-1.27696 -0.00163593 0)
(-1.20245 -0.016197 0)
(-1.11815 -0.0318895 0)
(-1.01944 -0.0448224 0)
(-0.928511 -0.056023 0)
(-0.842467 -0.0488119 0)
(-0.75257 -0.0347911 0)
(-0.655136 -0.0272751 0)
(-0.556162 -0.00834403 0)
(-0.45531 0.000720929 0)
(-0.370413 0.0136918 0)
(-0.306112 0.0107834 0)
(-0.208318 -0.0146105 0)
(-0.117458 -0.0172319 0)
(-0.0367523 -0.0299483 0)
(0.0644969 -0.0321615 0)
(0.136651 -0.0247114 0)
(0.213162 -0.0271854 0)
(0.283564 -0.0281605 0)
(0.349463 -0.028112 0)
(0.412917 -0.0281321 0)
(0.471999 -0.0268865 0)
(0.525985 -0.0249585 0)
(0.576281 -0.0232372 0)
(0.6241 -0.0217393 0)
(0.669386 -0.0201276 0)
(0.711654 -0.0186483 0)
(0.751455 -0.0176278 0)
(0.789122 -0.0166997 0)
(0.825186 -0.0155107 0)
(0.859013 -0.0140177 0)
(0.891136 -0.0125385 0)
(0.921369 -0.0114249 0)
(0.950269 -0.0106198 0)
(0.977941 -0.00992476 0)
(1.00449 -0.00933542 0)
(1.03036 -0.00877582 0)
(1.05524 -0.00844349 0)
(1.07957 -0.008075 0)
(1.10269 -0.00767396 0)
(1.12531 -0.00711935 0)
(1.14679 -0.00660542 0)
(1.16788 -0.00604034 0)
(1.18789 -0.00558014 0)
(1.20757 -0.00509769 0)
(1.22609 -0.00470116 0)
(1.24432 -0.0042545 0)
(1.26142 -0.0038667 0)
(1.27831 -0.00343424 0)
(1.2943 -0.00308353 0)
(1.31014 -0.00269992 0)
(1.3252 -0.00244888 0)
(1.34013 -0.00216403 0)
(1.3541 -0.00201602 0)
(1.36797 -0.00182513 0)
(1.38062 -0.00176644 0)
(1.39319 -0.00159927 0)
(1.40481 -0.00160383 0)
(1.41637 -0.00141694 0)
(1.42787 -0.00146537 0)
(1.43928 -0.00118169 0)
(1.45108 -0.00133094 0)
(1.46287 -0.000855561 0)
(1.47552 -0.000895386 0)
(1.49003 0.000677946 0)
(1.23296 0.995359 0)
(1.17651 0.774931 0)
(0.732644 0.589414 0)
(0.640708 0.287936 0)
(0.110989 0.16417 0)
(-0.143994 0.141371 0)
(-0.371699 0.223381 0)
(-0.782619 0.138764 0)
(-0.902802 0.0306657 0)
(-0.943288 -0.0116396 0)
(-0.881737 -0.0414331 0)
(-0.855499 -0.0347994 0)
(-0.851026 -0.0253211 0)
(-0.919037 -0.0133902 0)
(-0.999253 -0.00626656 0)
(-1.0678 0.0385837 0)
(-1.10811 0.0565353 0)
(-1.12101 0.0481582 0)
(-1.11735 0.0214651 0)
(-1.11038 0.0150015 0)
(-1.10633 0.0101607 0)
(-1.1046 0.00898984 0)
(-1.10796 0.0101982 0)
(-1.11024 0.00684542 0)
(-1.12186 0.00604055 0)
(-1.13146 -0.000632055 0)
(-1.14363 0.000599894 0)
(-1.1512 -0.00435514 0)
(-1.15484 -0.00153328 0)
(-1.14867 -0.00293392 0)
(-1.13864 0.000152034 0)
(-1.10652 -0.0055558 0)
(-1.07639 -0.00699643 0)
(-1.03016 -0.0146177 0)
(-0.949035 -0.0270315 0)
(-0.87105 -0.0334207 0)
(-0.790065 -0.0315868 0)
(-0.690303 -0.0216126 0)
(-0.570376 -0.0495592 0)
(-0.472383 -0.0409894 0)
(-0.380497 -0.0436993 0)
(-0.253636 -0.0712939 0)
(-0.136979 -0.0947153 0)
(0.00155383 -0.119294 0)
(0.15729 -0.136992 0)
(0.289519 -0.129056 0)
(0.42824 -0.136357 0)
(0.545925 -0.13968 0)
(0.62716 -0.126417 0)
(0.703118 -0.120489 0)
(0.765048 -0.113515 0)
(0.817786 -0.100633 0)
(0.869681 -0.0956765 0)
(0.913332 -0.0867024 0)
(0.952197 -0.0786047 0)
(0.990458 -0.0729526 0)
(1.0242 -0.0654237 0)
(1.05491 -0.0588899 0)
(1.08444 -0.0539352 0)
(1.1128 -0.0502932 0)
(1.13945 -0.0464151 0)
(1.16475 -0.0421735 0)
(1.18967 -0.038343 0)
(1.21342 -0.0350238 0)
(1.23682 -0.0320794 0)
(1.2588 -0.0293933 0)
(1.27997 -0.0269732 0)
(1.30003 -0.0247187 0)
(1.31918 -0.0228586 0)
(1.3376 -0.021066 0)
(1.35548 -0.0196855 0)
(1.37312 -0.01839 0)
(1.3903 -0.0171605 0)
(1.4072 -0.0157134 0)
(1.42362 -0.0144631 0)
(1.43991 -0.013312 0)
(1.45552 -0.012405 0)
(1.47091 -0.0114435 0)
(1.48547 -0.0105753 0)
(1.49976 -0.00958904 0)
(1.51325 -0.00873294 0)
(1.52658 -0.0078446 0)
(1.53917 -0.00721675 0)
(1.55158 -0.00657477 0)
(1.56337 -0.0061522 0)
(1.57499 -0.00560523 0)