/*--------------------------------*- C++ -*----------------------------------*\
| =========                 |                                                 |
| \\      /  F ield         | OpenFOAM: The Open Source CFD Toolbox           |
|  \\    /   O peration     | Version:  v2106                                 |
|   \\  /    A nd           | Website:  www.openfoam.com                      |
|    \\/     M anipulation  |                                                 |
\*---------------------------------------------------------------------------*/
FoamFile
{
    version     2.0;
    format      ascii;
    arch        "LSB;label=32;scalar=64";
    class       volScalarField;
    location    "16";
    object      p;
}
// * * * * * * * * * * * * * * * * * * * * * * * * * * * * * * * * * * * * * //

dimensions      [1 -1 -2 0 0 0 0];

internalField   nonuniform List<scalar> 
5250
(
1
1
1
1
1
1
1
1
1.00001
1.00009
1.00084
1.00722
1.06501
1.48714
3.33287
9.30312
12.4345
10.8904
11.3727
11.5904
11.6746
11.8391
11.9433
12.0335
12.0801
1
1
1
1
1
1
1
1
1.00001
1.00009
1.0008
1.00693
1.06191
1.47109
3.27001
9.18607
12.4989
10.8654
11.3627
11.5845
11.6681
11.8256
11.931
12.0194
12.0667
1
1
1
1
1
1
1
1
1.00001
1.00008
1.00071
1.00631
1.05548
1.43617
3.12801
8.8943
12.6023
10.8016
11.3231
11.5397
11.6181
11.7729
11.8709
11.9546
11.9948
1
1
1
1
1
1
1
1
1.00001
1.00007
1.00061
1.00552
1.04723
1.38879
2.94263
8.41723
12.7805
10.7302
11.2853
11.495
11.562
11.7075
11.7909
11.8659
11.9017
1
1
1
1
1
1
1
1
1.00001
1.00006
1.00051
1.00479
1.03936
1.33979
2.7473
7.79229
12.952
10.641
11.1927
11.4164
11.4648
11.5911
11.6807
11.7353
11.7732
1
1
1
1
1
1
1
1
1.00001
1.00005
1.00041
1.0038
1.0315
1.28873
2.53453
7.14525
12.9481
10.585
11.1014
11.335
11.3731
11.4856
11.5339
11.5867
11.583
1
1
1
1
1
1
1
1
1
1.00004
1.00028
1.00293
1.02431
1.23759
2.31074
6.45543
12.7871
10.5938
10.9885
11.215
11.2338
11.3044
11.3379
11.3492
11.3677
1
1
1
1
1
1
1
1
1
1.00003
1.00021
1.00258
1.01959
1.19859
2.13998
5.79062
12.2161
10.5901
10.8377
11.0447
11.1143
11.1008
11.0971
11.1095
10.9917
1
1
1
1
1
1
1
1
1
1.00003
1.00015
1.00205
1.01485
1.15676
1.94779
5.0991
11.4197
10.5814
10.6834
10.8445
10.8708
10.8458
10.7077
10.6528
10.4436
1
1
1
1
1
1
1
1
1
1.00003
1.0001
1.00183
1.01108
1.13083
1.7753
4.44118
10.4596
10.6011
10.5543
10.5613
10.6044
10.5638
10.2661
10.3221
9.40535
1
1
1
1
1
1
1
1
1
1.00001
1.00011
1.0011
1.00923
1.08746
1.60047
3.79374
9.3643
10.6338
10.3639
10.2623
10.1964
10.1748
9.6497
9.31394
6.87362
1
1
1
1
1
1
1
1
1
1
1.00009
1.00043
1.00645
1.04666
1.44338
3.20386
8.20027
10.717
10.0009
9.97526
9.86381
9.71933
9.05823
8.46793
6.55248
1
1
1
1
1
1
1
1
1
1.00001
1.00005
1.00044
1.00412
1.03324
1.29898
2.56861
6.90734
10.7385
9.70619
9.70369
9.61135
9.35702
8.75264
8.0048
6.64909
1
1
1
1
1
1
1
1
1
1
1.00003
1.00023
1.00246
1.02014
1.20377
2.16789
5.71082
10.3731
9.6133
9.46254
9.35979
9.05227
8.48818
7.75778
6.64812
1
1
1
1
1
1
1
1
1
1
1.00003
1.00012
1.00195
1.01232
1.13998
1.82593
4.6464
9.31283
9.6182
9.33361
9.10572
8.75795
8.2424
7.57716
6.6344
1
1
1
1
1
1
1
1
1
1
1.00001
1.00011
1.00105
1.00875
1.08028
1.5516
3.64075
7.9432
9.51615
9.10634
8.81568
8.47833
8.04209
7.46138
6.64169
1
1
1
1
1
1
1
1
1
1
1
1.00007
1.00028
1.00471
1.03097
1.32509
2.71593
6.50164
9.39509
8.87591
8.60266
8.30702
7.8964
7.35643
6.63893
1
1
1
1
1
1
1
1
1
1
1
1.00004
1.00021
1.0028
1.01913
1.19678
2.10001
5.11633
8.84771
8.84984
8.53309
8.20623
7.79317
7.27829
6.62994
1
1
1
1
1
1
1
1
1
1
1
1.00002
1.00015
1.00141
1.01155
1.10335
1.68396
3.97384
7.73275
8.83965
8.4504
8.05002
7.64318
7.1727
6.59694
1
1
1
1
1
1
1
1
1
1
1
1
1.0001
1.00035
1.00653
1.03894
1.42541
2.91524
6.24929
8.59677
8.21934
7.88124
7.52096
7.10193
6.58079
1
1
1
1
1
1
1
1
1
1
1
1
1.00004
1.00032
1.00268
1.02212
1.17982
2.06087
4.72187
7.87366
8.1122
7.81863
7.4646
7.06331
6.58478
1
1
1
1
1
1
1
1
1
1
1
1
1.00004
1.00026
1.00015
1.01293
1.041
1.66621
3.5324
6.69326
8.07656
7.77299
7.43106
7.04687
6.59785
1
1
1
1
1
1
1
1
1
1
1
1
1.00001
1.00007
1.0005
1.00433
1.03361
1.2687
2.43994
5.24352
7.68673
7.65767
7.39159
7.02756
6.60349
1
1
1
1
1
1
1
1
1
1
1
1
1
1.00006
1.00033
1.00028
1.01476
1.05286
1.82156
3.88623
6.73097
7.72219
7.41068
7.04792
6.63619
1
1
1
1
1
1
1
1
1
1
1
1
1
1.00001
1.00009
1.00067
1.00573
1.0435
1.34652
2.7069
5.36767
7.47042
7.3298
7.02577
6.64553
1
1
1
1
1
1
1
1
1
1
1
1
1
1.00001
1.00007
1.00038
1.00035
1.01778
1.06627
1.90158
3.99065
6.5805
7.3349
7.02365
6.66696
1
1
1
1
1
1
1
1
1
1
1
1
1
1
1.00001
1.00011
1.00077
1.00661
1.04819
1.37705
2.76094
5.23177
7.06247
6.91324
6.64161
1
1
1
1
1
1
1
1
1
1
1
1
1
1
1
1.00007
1.00037
1.00003
1.01881
1.05563
1.86417
3.85115
6.21496
6.92888
6.64778
1
1
1
1
1
1
1
1
1
1
1
1
1
1
1
1.00001
1.00011
1.00075
1.0066
1.0446
1.37068
2.67826
4.95497
6.66495
6.61626
1
1
1
1
1
1
1
1
1
1
1
1
1
1
1
1
1.00003
1.00016
0.999306
1.01537
1.06123
1.80445
3.63067
5.8049
6.64612
1
1
1
1
1
1
1
1
1
1
1
1
1
1
1
1
1.00001
1.00009
1.00056
1.00557
1.03738
1.32311
2.47469
4.55798
6.27745
1
1
1
1
1
1
1
1
1
1
1
1
1
1
1
1
1
0.999992
0.999993
0.999023
1.01082
1.06248
1.69369
3.23637
5.35547
1
1
1
1
1
1
1
1
1
1
1
1
1
1
1
1
1
1.00001
1.00007
1.00057
1.00479
1.03403
1.27685
2.41003
4.20174
1
1
1
1
1
1
1
1
1
1
1
1
1
1
1
1
1
1
1.00001
1.00008
1.00071
1.0076
1.05467
1.46765
2.73977
1
1
1
1
1
1
1
1
1
1
1
1
1
1
1
1
1
1
1.00001
1.00003
1.00038
1.00287
1.02084
0.994959
1.71926
1
1
1
1
1
1
1
1
1
1
1
1
1
1
1
1
1
1
1
1
1.00011
1.00053
1.00573
1.03265
1.30439
1
1
1
1
1
1
1
1
1
1
1
1
1
1
1
1
1
1
1
1
1.00003
1.0002
1.00112
1.0087
1.04379
1
1
1
1
1
1
1
1
1
1
1
1
1
1
1
1
1
1
1
1
1.00001
1.00001
1.0004
1.00212
1.01874
1
1
1
1
1
1
1
1
1
1
1
1
1
1
1
1
1
1
1
1
1
1.00002
1
1.0007
1.00196
1
1
1
1
1
1
1
1
1
1
1
1
1
1
1
1
1
1
1
1
1
1
1.00003
1.00021
1.00141
1
1
1
1
1
1
1
1
1
1
1
1
1
1
1
1
1
1
1
1
1
1
1.00001
1.00003
1.00038
1
1
1
1
1
1
1
1
1
1
1
1
1
1
1
1
1
1
1
1
1
1
1
1.00002
1.00008
1
1
1
1
1
1
1
1
1
1
1
1
1
1
1
1
1
1
1
1
1
1
1
1
1.00003
1
1
1
1
1
1
1
1
1
1
1
1
1
1
1
1
1
1
1
1
1
1
1
1
1.00001
1
1
1
1
1
1
1
1
1
1
1
1
1
1
1
1
1
1
1
1
1
1
1
1
1
1
1
1
1
1
1
1
1
1
1
1
1
1
1
1
1
1
1
1
1
1
1
1
1
1
1
1
1
1
1
1
1
1
1
1
1
1
1
1
1
1
1
1
1
1
1
1
1
1
1
1
1
1
1
1
1
1
1
1
1
1
1
1
1
1
1
1
1
1
1
1
1
1
1
1
1
1
1
1
1
1
1
1
1
1
1
1
1
1
1
1
1
1
1
1
1
1
1
1
1
1
1
1
1
1
1
1
1
1
1
1
1
1
1
1
1
1
1
1
1
1
1
1
1
1
2.71139
3.07545
3.88897
3.30287
3.54625
3.55984
3.36494
2.92782
2.59903
2.49084
2.49512
2.51392
2.51878
2.49538
2.39012
2.22893
2.12617
2.09259
2.09792
2.10585
2.11466
2.11719
2.11272
2.10679
2.09387
2.07913
2.06495
2.05909
2.05485
2.05747
2.06629
2.09762
2.14114
2.21712
2.34434
2.49006
2.63457
2.78732
2.99624
3.1703
3.33939
3.54063
3.74797
3.93823
4.14674
4.30894
4.42794
4.54931
4.65736
4.72894
4.804
4.85304
4.87598
4.89136
4.89627
4.88787
4.87382
4.85213
4.82255
4.78853
4.75077
4.70919
4.66504
4.61802
4.56926
4.51917
4.46924
4.41894
4.36853
4.31771
4.2665
4.21497
4.16317
4.11143
4.06016
4.00986
3.9607
3.91251
3.86532
3.81888
3.77327
3.72849
3.68466
3.64184
3.60015
3.5595
3.52006
3.48178
3.44488
3.40943
3.37566
3.34325
3.3124
3.28164
3.25158
3.22087
3.19027
3.15738
3.12459
3.10549
4.13643
4.00992
3.60716
3.28148
3.6661
3.7076
3.57273
2.9789
2.49741
2.36828
2.41616
2.49501
2.50329
2.44607
2.32968
2.21133
2.13616
2.10145
2.10506
2.1122
2.11824
2.12251
2.11728
2.11398
2.10258
2.0895
2.07027
2.05887
2.05038
2.05578
2.06829
2.10344
2.15117
2.21265
2.32308
2.45335
2.58894
2.74327
2.9664
3.17565
3.36448
3.5523
3.75908
3.93828
4.12984
4.28145
4.38938
4.51976
4.63477
4.71341
4.78975
4.83982
4.86758
4.8836
4.8891
4.88149
4.86587
4.844
4.81364
4.77955
4.74344
4.70302
4.6596
4.61287
4.56406
4.51435
4.46489
4.41531
4.36549
4.31492
4.26382
4.21225
4.1605
4.10905
4.05793
4.00775
3.95876
3.91074
3.86374
3.81748
3.77197
3.72725
3.68348
3.64073
3.5991
3.55854
3.51913
3.4809
3.44401
3.40862
3.37489
3.34268
3.31194
3.28149
3.25133
3.2209
3.18984
3.15663
3.12182
3.10147
4.95147
4.34891
3.9285
3.60288
3.63069
3.58474
3.23237
2.68651
2.4566
2.44233
2.49907
2.53378
2.53121
2.51097
2.4492
2.28716
2.11617
2.06457
2.05958
2.09334
2.1102
2.1188
2.10994
2.10112
2.0849
2.07292
2.05669
2.0623
2.05439
2.05959
2.06398
2.09088
2.13097
2.19497
2.31666
2.4708
2.63557
2.74404
2.95634
3.13893
3.2832
3.475
3.68791
3.8977
4.1042
4.26774
4.38331
4.48433
4.59875
4.67462
4.74523
4.80073
4.83309
4.85167
4.85689
4.8533
4.83921
4.82214
4.79512
4.76312
4.728
4.68843
4.64601
4.60047
4.55303
4.50433
4.45552
4.40668
4.35761
4.30808
4.25806
4.20751
4.15628
4.10474
4.05374
4.00387
3.9552
3.9075
3.86069
3.81448
3.76903
3.72448
3.6809
3.63845
3.59707
3.55671
3.51747
3.47939
3.44263
3.40732
3.37378
3.34182
3.31128
3.28118
3.25105
3.2207
3.18942
3.15563
3.11878
3.09663
5.35269
4.5116
4.01055
3.66032
3.59636
3.5653
3.30129
2.89959
2.61794
2.47748
2.45624
2.50045
2.50676
2.44569
2.30298
2.14693
2.09619
2.08705
2.09725
2.12195
2.12063
2.12984
2.12074
2.11872
2.10248
2.10008
2.06543
2.06112
2.03957
2.04632
2.0547
2.09072
2.14014
2.17936
2.28231
2.40356
2.53035
2.68654
2.88242
3.10683
3.28054
3.44212
3.63299
3.81403
3.99366
4.17147
4.29824
4.4048
4.52155
4.629
4.68314
4.74447
4.79154
4.82158
4.82222
4.82361
4.81072
4.79334
4.76662
4.73841
4.70962
4.67326
4.6314
4.58626
4.5385
4.49025
4.44264
4.39528
4.3477
4.29933
4.24973
4.19943
4.14898
4.09873
4.04866
3.99897
3.95037
3.90297
3.85645
3.81055
3.76532
3.72092
3.67764
3.63547
3.59437
3.55432
3.5154
3.47767
3.44118
3.40605
3.37264
3.3409
3.31033
3.2805
3.25046
3.2201
3.18863
3.15427
3.11568
3.09132
5.54325
4.72255
4.17692
3.81663
3.66766
3.58545
3.37799
2.94394
2.57304
2.4527
2.46381
2.51595
2.50975
2.4604
2.38055
2.25774
2.15875
2.09849
2.07772
2.09787
2.11034
2.11973
2.11073
2.10211
2.08257
2.07047
2.04662
2.05813
2.04894
2.05852
2.0563
2.07388
2.10361
2.16584
2.25621
2.38554
2.5116
2.64998
2.78019
2.96721
3.14239
3.33703
3.53929
3.72426
3.89721
4.0575
4.18604
4.29976
4.42592
4.54277
4.60278
4.67895
4.73886
4.74883
4.76023
4.77123
4.76111
4.7496
4.73229
4.70511
4.67879
4.64691
4.60716
4.56432
4.5193
4.47367
4.42807
4.38182
4.33431
4.28605
4.23741
4.18874
4.13967
4.0901
4.04044
3.99138
3.94329
3.89619
3.84989
3.80427
3.7594
3.71557
3.67287
3.63126
3.59062
3.55096
3.51235
3.47497
3.43883
3.40403
3.37089
3.33928
3.30878
3.2789
3.24884
3.2184
3.18685
3.15217
3.11238
3.08642
5.68223
4.92769
4.37076
3.9949
3.77223
3.65515
3.46078
3.09589
2.74981
2.55718
2.51468
2.52562
2.51709
2.45916
2.34867
2.21001
2.12397
2.08938
2.0904
2.11469
2.12067
2.1281
2.11886
2.11595
2.09733
2.09453
2.06559
2.06534
2.04222
2.05147
2.06065
2.08743
2.11924
2.1584
2.20944
2.27934
2.34668
2.45167
2.56453
2.7312
2.89502
3.10396
3.32516
3.53415
3.72463
3.9124
4.08512
4.19917
4.31401
4.37698
4.4818
4.59455
4.6741
4.68562
4.70144
4.69694
4.69763
4.69597
4.69089
4.67606
4.65168
4.62021
4.58271
4.54274
4.50061
4.45652
4.41136
4.36593
4.31989
4.27361
4.22667
4.17838
4.12918
4.0803
4.03179
3.98334
3.93524
3.88807
3.84203
3.79697
3.75282
3.70962
3.66749
3.62644
3.58634
3.54716
3.50896
3.47206
3.43644
3.40212
3.36918
3.33754
3.30686
3.27669
3.24648
3.21597
3.1844
3.14955
3.10892
3.0818
5.80192
5.10136
4.55223
4.16042
3.9009
3.7626
3.56139
3.27238
2.97522
2.69161
2.54762
2.51526
2.50434
2.47259
2.4107
2.30103
2.18341
2.11862
2.09316
2.09925
2.10799
2.11758
2.11096
2.10352
2.08889
2.08063
2.06029
2.07105
2.05828
2.08958
2.11179
2.13302
2.15139
2.18661
2.19368
2.20894
2.25533
2.30705
2.38292
2.47186
2.58008
2.73163
2.89871
3.08488
3.30686
3.58481
3.86541
4.10054
4.25622
4.28472
4.35548
4.43862
4.53231
4.59635
4.63839
4.65805
4.64668
4.64005
4.63111
4.62983
4.61806
4.59087
4.55162
4.51001
4.47215
4.43397
4.39256
4.34814
4.30213
4.25519
4.20804
4.16134
4.11503
4.06858
4.02134
3.97324
3.92533
3.87864
3.83322
3.7888
3.74529
3.70278
3.66135
3.62094
3.58136
3.54275
3.50521
3.46898
3.43397
3.40003
3.36723
3.33552
3.30453
3.27399
3.24347
3.21263
3.18084
3.14581
3.10468
3.07689
5.90007
5.23861
4.71502
4.29655
4.03507
3.84717
3.67736
3.42169
3.14298
2.87593
2.66713
2.56681
2.5406
2.51518
2.46598
2.36193
2.22777
2.12893
2.08745
2.08633
2.10642
2.12949
2.12824
2.11947
2.09797
2.09344
2.08165
2.09799
2.10699
2.14854
2.23795
2.29195
2.30564
2.29709
2.25865
2.2252
2.22035
2.22931
2.26347
2.29582
2.36044
2.44974
2.55118
2.6699
2.83708
3.06513
3.32121
3.64454
4.01394
4.26381
4.36228
4.35528
4.37076
4.44127
4.52948
4.59143
4.60586
4.60391
4.5878
4.57177
4.55816
4.54163
4.51825
4.48259
4.4467
4.41031
4.37077
4.32801
4.2834
4.23759
4.19177
4.14667
4.10137
4.05519
4.0083
3.96161
3.91507
3.86906
3.82404
3.78014
3.7372
3.69536
3.65471
3.6152
3.57659
3.53875
3.50177
3.46607
3.4317
3.39829
3.36559
3.33363
3.30224
3.27117
3.24015
3.20887
3.17678
3.1416
3.10023
3.07203
5.95374
5.34708
4.84
4.43406
4.17448
3.94097
3.77926
3.55421
3.30264
3.04141
2.80948
2.65331
2.58381
2.53986
2.48945
2.41267
2.30853
2.19953
2.12824
2.10136
2.10452
2.11707
2.12886
2.12542
2.11852
2.10235
2.11691
2.12117
2.23702
2.33648
2.53815
2.59931
2.59954
2.53036
2.42128
2.33085
2.28526
2.2548
2.24483
2.2483
2.26866
2.30383
2.34061
2.39426
2.49032
2.62201
2.77231
3.02734
3.35128
3.74531
4.16314
4.38138
4.3758
4.37385
4.39493
4.44358
4.50321
4.53116
4.54195
4.52641
4.50813
4.49579
4.48117
4.45406
4.41771
4.38199
4.34423
4.30217
4.25918
4.21614
4.17272
4.12888
4.08463
4.04065
3.99642
3.95088
3.90466
3.85922
3.81504
3.77198
3.7297
3.68847
3.6485
3.60966
3.57172
3.53455
3.49845
3.46364
3.4299
3.39676
3.36407
3.33181
3.29989
3.26824
3.23662
3.20479
3.17222
3.13663
3.09476
3.06611
6.00912
5.4463
4.95756
4.56423
4.29208
4.03931
3.87449
3.66628
3.4302
3.18235
2.94505
2.75415
2.63982
2.57876
2.52763
2.46432
2.37765
2.28892
2.1979
2.13879
2.11911
2.11704
2.12561
2.12214
2.12873
2.11751
2.15711
2.19539
2.43226
2.72291
3.06093
3.07957
3.00228
2.81489
2.63348
2.50079
2.40972
2.34673
2.30312
2.27341
2.26335
2.26059
2.26372
2.27922
2.31964
2.35995
2.43017
2.57644
2.75788
3.03266
3.43053
3.93864
4.30591
4.43499
4.37494
4.35193
4.37856
4.42407
4.46325
4.47349
4.45965
4.44366
4.4209
4.40946
4.38839
4.35676
4.32018
4.27918
4.2351
4.19259
4.15227
4.11119
4.06838
4.02409
3.97964
3.93644
3.8939
3.85142
3.80843
3.76499
3.72241
3.68149
3.64228
3.60448
3.56759
3.53151
3.49638
3.46226
3.42888
3.39583
3.36299
3.33024
3.29762
3.26518
3.23281
3.20034
3.16719
3.13107
3.08859
3.05941
6.05936
5.53471
5.06616
4.68381
4.38672
4.13628
3.96279
3.76715
3.54644
3.31254
3.07802
2.87137
2.72057
2.634
2.56927
2.51013
2.44723
2.36421
2.27511
2.20096
2.15011
2.12801
2.12714
2.12879
2.13662
2.16011
2.22123
2.39132
2.82995
3.43949
3.62911
3.56662
3.39118
3.15173
2.94345
2.77326
2.64087
2.54535
2.46492
2.39458
2.33447
2.28912
2.26047
2.25011
2.24989
2.25139
2.27834
2.32789
2.39645
2.5346
2.76608
3.09719
3.56117
4.11757
4.39476
4.40887
4.36034
4.33151
4.34414
4.37403
4.39072
4.40228
4.38815
4.36701
4.35004
4.31872
4.28455
4.25188
4.21553
4.17465
4.13254
4.09081
4.04932
4.00728
3.96504
3.92332
3.88177
3.84042
3.7987
3.75636
3.71406
3.67313
3.63466
3.5981
3.56245
3.52754
3.49331
3.45973
3.42658
3.39358
3.36047
3.32709
3.29372
3.26059
3.22765
3.19469
3.16106
3.12438
3.08109
3.05128
6.10916
5.61856
5.16695
4.78161
4.47087
4.22863
4.04334
3.85339
3.64487
3.42395
3.19867
2.9928
2.82486
2.701
2.61625
2.56511
2.50495
2.4205
2.34364
2.26406
2.19567
2.14779
2.13127
2.13301
2.14969
2.20462
2.34058
2.72161
3.42951
4.15533
4.12378
3.99575
3.75322
3.50546
3.28472
3.09539
2.93875
2.80119
2.68309
2.58594
2.49915
2.41882
2.35104
2.30032
2.26435
2.23833
2.22724
2.22925
2.24083
2.292
2.38068
2.5264
2.80924
3.20598
3.74064
4.24466
4.43681
4.36137
4.28492
4.26954
4.29503
4.31961
4.33627
4.32661
4.31179
4.28829
4.2577
4.22528
4.19265
4.1552
4.11118
4.06727
4.0272
3.98908
3.95102
3.91221
3.87191
3.83155
3.79064
3.74895
3.70699
3.66666
3.62924
3.59384
3.55935
3.52554
3.49206
3.45875
3.42542
3.39191
3.35811
3.324
3.28991
3.25606
3.22243
3.18879
3.15441
3.11691
3.07261
3.04195
6.14276
5.6821
5.2532
4.87
4.54971
4.30689
4.11146
3.93287
3.73728
3.53044
3.31688
3.10664
2.93545
2.78888
2.68501
2.61561
2.54805
2.48773
2.41327
2.32863
2.2541
2.1859
2.14696
2.15582
2.19269
2.30186
2.59595
3.25716
4.12095
4.57317
4.51622
4.32943
4.06571
3.81227
3.58744
3.38991
3.21125
3.05674
2.92244
2.80235
2.6886
2.58955
2.50529
2.42788
2.35908
2.29279
2.2508
2.22272
2.19409
2.2005
2.21519
2.26578
2.38762
2.56083
2.88907
3.36377
3.96891
4.3306
4.3841
4.28857
4.22528
4.21596
4.24403
4.27324
4.27532
4.2544
4.22191
4.19195
4.16276
4.13304
4.09655
4.05218
4.00832
3.97007
3.93505
3.89988
3.86229
3.82223
3.78044
3.73759
3.69579
3.65711
3.62151
3.58749
3.55412
3.52122
3.48841
3.45554
3.42232
3.38852
3.35394
3.31888
3.28393
3.24951
3.21542
3.18132
3.14641
3.10838
3.06323
3.03165
6.19386
5.74956
5.33405
4.95748
4.63433
4.38137
4.182
4.00405
3.8228
3.62628
3.428
3.22749
3.04089
2.89149
2.76069
2.66748
2.60573
2.54124
2.46496
2.39226
2.31579
2.23265
2.19432
2.20759
2.28709
2.52102
3.11254
4.06246
4.74701
4.80059
4.70239
4.51829
4.30661
4.09152
3.88361
3.67724
3.48736
3.31623
3.16082
3.01869
2.89373
2.78342
2.6782
2.57667
2.49019
2.42004
2.35663
2.28891
2.22385
2.18757
2.171
2.17968
2.20023
2.24908
2.39975
2.64819
3.00432
3.52919
4.11269
4.37896
4.33449
4.21242
4.16423
4.16785
4.20003
4.20468
4.19166
4.17084
4.13405
4.09574
4.06032
4.02583
3.98883
3.95156
3.91507
3.87902
3.84428
3.8085
3.77074
3.7299
3.68819
3.64991
3.61547
3.58261
3.55001
3.51762
3.48515
3.45228
3.41862
3.38397
3.34838
3.31246
3.27697
3.24215
3.2076
3.17305
3.13752
3.09879
3.05258
3.01979
6.22556
5.79991
5.399
5.0299
4.71171
4.45695
4.25253
4.07281
3.90008
3.71458
3.52774
3.34404
3.15211
2.98913
2.84661
2.73921
2.65602
2.58477
2.51916
2.44975
2.36182
2.28998
2.26111
2.30795
2.49014
2.98934
3.88203
4.70594
4.97772
4.90071
4.7877
4.65274
4.49496
4.31684
4.11674
3.91487
3.72266
3.54217
3.37735
3.22738
3.09175
2.96588
2.84769
2.73915
2.64467
2.56412
2.48004
2.39856
2.32766
2.26049
2.21001
2.17256
2.14255
2.15353
2.1931
2.25877
2.42745
2.72013
3.14323
3.73073
4.20348
4.34726
4.23616
4.11858
4.07958
4.11163
4.13317
4.13401
4.10975
4.07474
4.03652
4.00118
3.97023
3.93832
3.90597
3.86895
3.83034
3.79225
3.75474
3.71712
3.6789
3.64266
3.60929
3.57717
3.5452
3.51328
3.48104
3.44806
3.41391
3.37832
3.34168
3.30502
3.26909
3.23383
3.19874
3.16363
3.12739
3.08794
3.0408
3.00691
6.2721
5.86073
5.46675
5.1069
4.78648
4.53253
4.32644
4.1452
3.97744
3.80545
3.62484
3.44589
3.26644
3.08645
2.93228
2.81137
2.70813
2.6392
2.56528
2.48599
2.41166
2.37311
2.38778
2.51587
2.92815
3.74802
4.64288
5.01828
5.0032
4.95078
4.87141
4.76696
4.63379
4.48029
4.30557
4.12176
3.93666
3.75576
3.58436
3.4249
3.27759
3.14518
3.01919
2.90355
2.80136
2.69586
2.60453
2.52746
2.45028
2.37727
2.30831
2.23792
2.1813
2.14951
2.12528
2.12803
2.17201
2.27404
2.4708
2.82456
3.31364
3.94365
4.26532
4.27489
4.14545
4.06176
4.03603
4.05162
4.05356
4.03995
4.01066
3.97032
3.9323
3.90263
3.87804
3.8502
3.81751
3.78098
3.74271
3.7048
3.66911
3.63565
3.60326
3.57119
3.53915
3.50716
3.47495
3.44193
3.40759
3.37169
3.33427
3.2965
3.25971
3.2238
3.18817
3.15254
3.11571
3.07556
3.0274
2.99225
6.29042
5.91654
5.53546
5.18884
4.87266
4.60629
4.40468
4.2187
4.04884
3.88601
3.71467
3.53649
3.36074
3.18437
3.01953
2.88239
2.77493
2.69057
2.60248
2.52941
2.48579
2.49174
2.59942
2.93908
3.66602
4.59503
5.03826
5.04307
5.0231
4.98306
4.9232
4.84036
4.73396
4.60148
4.45321
4.28853
4.11596
3.94197
3.77102
3.60982
3.46023
3.31745
3.18411
3.06673
2.94632
2.83623
2.75012
2.6595
2.5741
2.48544
2.40178
2.3302
2.26855
2.20916
2.15765
2.12028
2.08387
2.10678
2.17193
2.30632
2.56527
2.93312
3.473
4.03254
4.28085
4.20316
4.04703
3.97014
3.96561
3.97285
3.97013
3.9499
3.91239
3.87373
3.84164
3.81911
3.79625
3.76938
3.73743
3.70056
3.66239
3.62776
3.5957
3.56383
3.53197
3.5001
3.46788
3.43474
3.40003
3.3636
3.3259
3.28779
3.25021
3.21321
3.1767
3.14022
3.10261
3.06173
3.01284
2.97676
6.33763
5.98574
5.62264
5.27666
4.9655
4.68608
4.47745
4.29627
4.11969
3.95602
3.79683
3.63074
3.45366
3.27496
3.10308
2.95312
2.84278
2.74188
2.63885
2.5993
2.59957
2.68708
2.98611
3.66111
4.62473
5.09333
5.10417
5.0812
5.04619
5.00845
4.96437
4.90188
4.81525
4.70288
4.56911
4.42309
4.26612
4.10735
3.94296
3.78366
3.62782
3.4789
3.34387
3.21787
3.08988
2.9887
2.87867
2.77313
2.67847
2.58529
2.50187
2.42993
2.35934
2.28656
2.22051
2.15563
2.10223
2.06991
2.07257
2.09377
2.16623
2.34278
2.64343
3.08311
3.70709
4.11459
4.19285
4.07443
3.94348
3.89136
3.88851
3.89541
3.88585
3.85964
3.82803
3.79823
3.77321
3.74792
3.72064
3.68975
3.65424
3.61768
3.58412
3.55318
3.52241
3.49124
3.4595
3.42629
3.39126
3.35471
3.31628
3.27716
3.23849
3.20029
3.16287
3.12569
3.08742
3.04588
2.99612
2.95876
6.36608
6.06858
5.73141
5.38346
5.07073
4.78297
4.55066
4.3715
4.18968
4.01804
3.86365
3.70768
3.54532
3.36993
3.19253
3.0345
2.90782
2.78048
2.71379
2.69568
2.77422
3.03797
3.67934
4.66147
5.24994
5.24888
5.19366
5.12244
5.0708
5.03442
4.99452
4.94259
4.86981
4.77877
4.66332
4.53295
4.3888
4.2363
4.07968
3.92711
3.77566
3.63217
3.48852
3.34993
3.23321
3.11479
2.9917
2.88382
2.78461
2.69098
2.60118
2.51327
2.43617
2.36986
2.30301
2.23899
2.17836
2.11585
2.06754
2.03365
2.02928
2.07342
2.18849
2.40704
2.76945
3.27177
3.8735
4.14597
4.10457
3.96029
3.84799
3.79929
3.80546
3.80419
3.79879
3.78988
3.76934
3.73943
3.70553
3.67186
3.63816
3.60379
3.57034
3.53909
3.50878
3.47852
3.4483
3.41673
3.38203
3.34507
3.3056
3.264
3.22309
3.1838
3.14554
3.10772
3.06887
3.02703
2.9768
2.9387
6.40862
6.12314
5.81243
5.48262
5.17387
4.88866
4.62486
4.4386
4.25913
4.07753
3.92503
3.77727
3.61889
3.44968
3.27891
3.12248
2.97407
2.85943
2.82819
2.86971
3.0943
3.70574
4.69703
5.42501
5.4578
5.38012
5.26456
5.17686
5.1211
5.07676
5.02959
4.97655
4.91235
4.83308
4.73776
4.62177
4.49171
4.34779
4.20063
4.04902
3.89931
3.74981
3.6017
3.46582
3.3389
3.21091
3.0973
2.98852
2.87862
2.77514
2.68
2.59488
2.51509
2.44448
2.3807
2.32335
2.25661
2.18496
2.11256
2.05122
2.01249
1.98446
2.01516
2.08887
2.23916
2.49799
2.89863
3.45705
3.93345
4.08015
3.97381
3.83071
3.75673
3.74616
3.75211
3.76106
3.76009
3.73664
3.69911
3.66037
3.62413
3.59113
3.56012
3.53076
3.50013
3.46771
3.43498
3.40274
3.36892
3.33251
3.29334
3.25059
3.20706
3.16553
3.12582
3.08773
3.04903
3.00677
2.95609
2.91729
6.44542
6.18288
5.89874
5.57701
5.26144
4.9835
4.70845
4.49211
4.31935
4.13299
3.96266
3.83406
3.68828
3.52544
3.35108
3.18376
3.05098
2.98333
3.00695
3.18925
3.73909
4.70482
5.58077
5.74959
5.60134
5.43436
5.31939
5.24544
5.17834
5.11685
5.05891
5.00143
4.94006
4.86955
4.78669
4.68749
4.57529
4.44738
4.31175
4.16355
4.01285
3.86179
3.72482
3.58778
3.4504
3.3261
3.20918
3.09553
2.983
2.88051
2.78394
2.6987
2.61721
2.53924
2.46739
2.39769
2.32617
2.25461
2.18198
2.11537
2.05187
2.00029
1.96885
1.97873
2.01254
2.10141
2.28029
2.59497
3.05032
3.65258
3.95505
3.94723
3.83542
3.73683
3.69458
3.69602
3.70309
3.70415
3.68829
3.65467
3.61348
3.57332
3.54059
3.51414
3.4859
3.45439
3.42184
3.38887
3.35329
3.31527
3.27552
3.23312
3.18873
3.1449
3.10353
3.06436
3.02577
2.98319
2.93189
2.89242
6.37486
6.21898
5.94954
5.67384
5.36402
5.07394
4.79869
4.54555
4.36687
4.18908
4.01618
3.88076
3.74392
3.59594
3.42553
3.25696
3.16778
3.16279
3.31148
3.80887
4.75479
5.74095
6.00333
5.84314
5.65244
5.51638
5.42213
5.33151
5.24507
5.16867
5.10011
5.0347
4.96878
4.89917
4.82229
4.73489
4.63479
4.52215
4.39682
4.26495
4.12514
3.98457
3.84403
3.70387
3.57102
3.44316
3.32
3.20072
3.08769
2.97897
2.87907
2.78569
2.70337
2.6277
2.55045
2.47493
2.40354
2.33042
2.2549
2.17819
2.11099
2.05362
2.00758
1.9733
1.94737
1.96923
2.0216
2.14573
2.37248
2.71448
3.20247
3.7167
3.91607
3.86378
3.7517
3.67583
3.64302
3.6501
3.64893
3.63816
3.60927
3.56871
3.52658
3.49123
3.46303
3.43303
3.40039
3.37103
3.33928
3.30085
3.25886
3.21305
3.1654
3.12013
3.07844
3.03814
2.99943
2.95762
2.90607
2.86616
5.84766
6.27305
6.03514
5.74391
5.44077
5.14387
4.87333
4.60734
4.40589
4.24335
4.08062
3.93003
3.80895
3.67114
3.49269
3.38778
3.35503
3.47795
3.91391
4.82745
5.9047
6.27076
6.08949
5.87837
5.73324
5.62823
5.52037
5.41169
5.31021
5.21913
5.13821
5.06315
4.99177
4.91992
4.8451
4.76422
4.67421
4.57369
4.46274
4.34252
4.21373
4.07951
3.94197
3.80732
3.67408
3.54328
3.41625
3.29354
3.17534
3.06333
2.96192
2.8673
2.77925
2.69776
2.61918
2.54232
2.46472
2.38672
2.31216
2.23937
2.17524
2.11755
2.06539
2.0156
1.96763
1.94694
1.94745
1.97499
2.04583
2.18562
2.44549
2.83757
3.38528
3.76663
3.85045
3.77809
3.68014
3.61332
3.58961
3.58935
3.5883
3.56233
3.52198
3.47822
3.43954
3.40746
3.37827
3.34966
3.31996
3.28138
3.23795
3.19118
3.1407
3.09292
3.04999
3.00928
2.97021
2.92949
2.87791
2.8376
4.56873
5.83363
5.88986
5.6864
5.45159
5.17153
4.93622
4.68288
4.45445
4.30988
4.15099
3.98878
3.86493
3.73036
3.60972
3.5644
3.67091
4.07722
4.94675
6.10222
6.60676
6.38685
6.13437
5.9686
5.85674
5.74236
5.62321
5.50637
5.39488
5.28996
5.19389
5.10627
5.02482
4.94659
4.86819
4.78773
4.70239
4.61001
4.50911
4.39976
4.28322
4.15989
4.03347
3.90427
3.77398
3.64507
3.51798
3.39409
3.27377
3.15958
3.05375
2.95635
2.8631
2.77528
2.69154
2.6102
2.52877
2.44637
2.36819
2.29802
2.2333
2.17082
2.11481
2.0659
2.01755
1.97274
1.94122
1.92715
1.93449
1.96354
2.05677
2.24899
2.56298
2.99125
3.53037
3.77122
3.76504
3.6782
3.60401
3.54941
3.52548
3.51863
3.49452
3.46002
3.41899
3.38182
3.35006
3.32083
3.29027
3.25591
3.21432
3.1686
3.11634
3.06424
3.01914
2.97846
2.9385
2.89843
2.84716
2.80689
3.36577
5.14859
5.9055
5.76453
5.53622
5.28095
5.03998
4.80982
4.57014
4.40691
4.24901
4.07182
3.93632
3.8288
3.80248
3.88005
4.27602
5.13356
6.36355
6.98221
6.71975
6.41982
6.22592
6.10231
5.97805
5.85044
5.72265
5.59747
5.47633
5.3594
5.24935
5.14789
5.05465
4.96782
4.88431
4.8012
4.7164
4.62812
4.53461
4.43539
4.32956
4.21786
4.10082
3.97911
3.85628
3.73082
3.60536
3.48025
3.35824
3.24222
3.13372
3.03466
2.94317
2.85606
2.7738
2.69264
2.61116
2.5266
2.44062
2.36154
2.29329
2.23797
2.1849
2.13014
2.0765
2.02402
1.98028
1.94521
1.91853
1.89434
1.91586
1.9731
2.08882
2.34003
2.68792
3.18403
3.60995
3.75559
3.70603
3.60224
3.50743
3.46138
3.44617
3.4266
3.39695
3.36598
3.3263
3.28956
3.2558
3.22145
3.18119
3.13597
3.08525
3.032
2.98554
2.94476
2.90392
2.86346
2.81358
2.77368
2.38504
4.10062
5.53387
5.86842
5.6464
5.41371
5.15568
4.929
4.69901
4.49927
4.32785
4.15151
4.03213
4.01194
4.11163
4.50203
5.38431
6.70455
7.39257
7.10904
6.77112
6.54449
6.39659
6.25522
6.1118
5.96969
5.83164
5.6976
5.56703
5.44052
5.31929
5.20504
5.09883
5.00034
4.90815
4.81906
4.73097
4.6424
4.55174
4.45807
4.3604
4.25832
4.15112
4.04011
3.92437
3.80661
3.68514
3.56309
3.44246
3.32657
3.21758
3.11685
3.0224
2.93271
2.84682
2.76075
2.67548
2.58878
2.50016
2.41351
2.34201
2.28419
2.23208
2.17917
2.1252
2.07532
2.02967
1.98489
1.94015
1.9018
1.88355
1.87199
1.90197
1.98018
2.14258
2.42442
2.84467
3.39886
3.66504
3.66229
3.5761
3.46669
3.40021
3.36243
3.35174
3.32751
3.29819
3.26406
3.22886
3.18716
3.14028
3.09251
3.04701
2.99963
2.95373
2.91116
2.86924
2.82552
2.77593
2.73762
1.55121
2.75403
4.45988
5.57993
5.63545
5.46936
5.26423
5.04198
4.82416
4.58565
4.35348
4.24376
4.20188
4.31853
4.73843
5.65149
7.05823
7.82037
7.52639
7.14556
6.87529
6.70345
6.5432
6.38381
6.22595
6.07419
5.92767
5.78568
5.64736
5.513
5.38313
5.25903
5.14158
5.03205
4.92998
4.83325
4.74005
4.64864
4.55774
4.46654
4.37393
4.2788
4.18049
4.07811
3.9718
3.86135
3.74639
3.62828
3.50988
3.39488
3.28512
3.18186
3.08677
2.99656
2.9079
2.82119
2.73379
2.64631
2.55805
2.47369
2.40112
2.34072
2.28738
2.23765
2.18709
2.13817
2.0865
2.0368
1.99195
1.9507
1.90629
1.87148
1.85283
1.84027
1.88203
1.99729
2.22403
2.57456
3.05202
3.46871
3.59718
3.55162
3.44893
3.35932
3.29778
3.26137
3.23907
3.21389
3.18627
3.14819
3.1034
3.05281
3.00569
2.96089
2.91672
2.87401
2.83137
2.78694
2.73769
2.70047
1.10116
1.80021
3.27387
4.91484
5.65956
5.56046
5.36427
5.16093
4.93397
4.65813
4.46647
4.40213
4.51863
4.97621
5.9737
7.49929
8.31753
7.99172
7.56176
7.24369
7.05093
6.87937
6.70689
6.53061
6.35893
6.19524
6.03761
5.88492
5.73744
5.59515
5.45774
5.32532
5.19818
5.07754
4.96447
4.85745
4.75498
4.65698
4.56335
4.4727
4.38265
4.29212
4.19978
4.10525
4.00679
3.90391
3.7964
3.68516
3.57366
3.46442
3.35937
3.25895
3.16324
3.07178
2.9814
2.8925
2.80333
2.71443
2.62714
2.54414
2.4678
2.40418
2.34809
2.29417
2.24227
2.18843
2.13664
2.08753
2.04322
1.99632
1.94807
1.89999
1.85388
1.82849
1.80189
1.83157
1.9224
2.05983
2.33998
2.72414
3.19821
3.45041
3.47378
3.41701
3.30925
3.22223
3.16739
3.14512
3.12014
3.09516
3.06529
3.02214
2.97394
2.92558
2.87654
2.83194
2.78921
2.74559
2.6978
2.66191
1.0363
1.29739
2.38358
3.92002
5.23118
5.60046
5.44521
5.22834
4.98079
4.75247
4.66574
4.75309
5.22146
6.28171
7.93758
8.83036
8.46918
7.99556
7.62737
7.40692
7.23155
7.04877
6.85317
6.6599
6.47856
6.30642
6.14007
5.97852
5.82237
5.67155
5.52577
5.38505
5.24919
5.11917
4.99678
4.88052
4.76934
4.66327
4.56367
4.47077
4.38176
4.2934
4.20473
4.11496
4.0223
3.9257
3.8249
3.72116
3.61704
3.51387
3.4123
3.31281
3.21586
3.1215
3.02945
2.93784
2.84616
2.75649
2.67077
2.59142
2.51818
2.45222
2.39297
2.33864
2.2856
2.23531
2.18689
2.14055
2.09436
2.04875
2.00439
1.95813
1.91128
1.85706
1.81049
1.78446
1.79456
1.82868
1.909
2.09497
2.38741
2.8228
3.21833
3.38434
3.35805
3.26158
3.15745
3.08817
3.0482
3.03112
3.00183
2.97002
2.93381
2.89312
2.84199
2.78948
2.7452
2.70171
2.65523
2.62148
1.00884
1.05485
1.47581
2.55338
4.06209
5.13206
5.30968
5.16863
4.97751
4.88748
5.02262
5.56848
6.7067
8.47829
9.42401
9.00443
8.46305
8.05444
7.8185
7.63922
7.44863
7.23656
7.01822
6.81363
6.61921
6.43126
6.24994
6.07615
5.90995
5.75076
5.59709
5.44908
5.30585
5.16789
5.03648
4.91146
4.79217
4.67686
4.56863
4.47072
4.38136
4.2948
4.20837
4.12152
4.03227
3.93942
3.84407
3.74786
3.65233
3.5577
3.46374
3.37102
3.27858
3.18742
3.0963
3.00514
2.91337
2.82344
2.73771
2.65838
2.58663
2.5216
2.46142
2.40312
2.34741
2.29383
2.2429
2.19375
2.14653
2.09973
2.05276
2.00686
1.95774
1.90308
1.84789
1.79877
1.76938
1.75552
1.73996
1.79186
1.92143
2.15692
2.52008
2.94903
3.20073
3.24263
3.20271
3.11197
3.02755
2.97127
2.93907
2.90997
2.88077
2.84796
2.80268
2.74379
2.69276
2.65135
2.61057
2.57882