/*--------------------------------*- C++ -*----------------------------------*\
| =========                 |                                                 |
| \\      /  F ield         | OpenFOAM: The Open Source CFD Toolbox           |
|  \\    /   O peration     | Version:  v2106                                 |
|   \\  /    A nd           | Website:  www.openfoam.com                      |
|    \\/     M anipulation  |                                                 |
\*---------------------------------------------------------------------------*/
FoamFile
{
    version     2.0;
    format      ascii;
    arch        "LSB;label=32;scalar=64";
    class       surfaceScalarField;
    location    "16";
    object      phi;
}
// * * * * * * * * * * * * * * * * * * * * * * * * * * * * * * * * * * * * * //

dimensions      [1 0 -1 0 0 0 0];

oriented        oriented;

internalField   nonuniform List<scalar> 
10325
(
0.0084507
-5.80319e-17
0.0084507
8.04478e-17
0.0084507
7.89001e-16
0.0084507
5.62216e-15
0.0084507
5.85922e-14
0.0084507
4.83361e-13
0.0084507
4.26705e-12
0.0084507
4.18288e-11
0.00845066
2.95856e-10
0.00845035
3.59605e-09
0.00844753
1.9718e-08
0.00842348
2.98158e-07
0.00822452
1.47718e-06
0.00735347
2.37588e-05
0.00637201
8.27991e-05
0.00625727
0.00100668
0.00679385
0.00051003
0.00617199
0.000589326
0.00547087
0.000612205
0.0047942
0.000680385
0.00399957
0.000771374
0.00313629
0.000841847
0.00218358
0.000938882
0.00115815
0.00102042
0.00115779
0.0084507
-8.73325e-17
0.0084507
1.44524e-16
0.0084507
1.62438e-15
0.0084507
8.56037e-15
0.0084507
1.25194e-13
0.0084507
7.33311e-13
0.0084507
9.56725e-12
0.0084507
6.4774e-11
0.00845067
7.08238e-10
0.00845037
5.82138e-09
0.00844768
5.05838e-08
0.00842462
5.19558e-07
0.00823378
3.75334e-06
0.00737259
4.75803e-05
0.00637827
0.000171846
0.00614373
0.00206963
0.00671551
0.00104434
0.006111
0.0011606
0.00537712
0.00125533
0.00469463
0.00136677
0.0039299
0.00151184
0.00307593
0.00167402
0.0021189
0.00188328
0.00108503
0.0020501
0.00224396
0.0084507
-6.90095e-17
0.0084507
1.76617e-16
0.0084507
2.33179e-15
0.0084507
6.89179e-15
0.0084507
1.90419e-13
0.0084507
5.46278e-13
0.0084507
1.48978e-11
0.0084507
4.68355e-11
0.00845067
1.1473e-09
0.0084504
4.4947e-09
0.00844799
8.49652e-08
0.00842708
4.91932e-07
0.0082551
5.99478e-06
0.00742596
6.31174e-05
0.00645044
0.000209628
0.00608964
0.00308683
0.00670197
0.0017232
0.00608179
0.00175054
0.00533111
0.00191925
0.00465507
0.00204463
0.00387281
0.00227126
0.00303641
0.0024926
0.00210012
0.00280798
0.00107752
0.00307586
0.00332979
0.0084507
-1.19262e-17
0.0084507
1.4222e-16
0.0084507
2.73349e-15
0.0084507
-1.79308e-15
0.0084507
2.35786e-13
0.0084507
-4.71079e-14
0.0084507
1.87755e-11
0.0084507
-9.89324e-12
0.00845067
1.47306e-09
0.00845044
-2.27516e-09
0.0084484
1.07602e-07
0.00843039
9.13303e-08
0.00828399
7.16752e-06
0.00750332
6.68603e-05
0.00657412
0.00018081
0.0061798
0.00377568
0.0069226
0.00265676
0.0062003
0.00244225
0.00539556
0.00263722
0.00466702
0.00277214
0.00387077
0.00303949
0.00305099
0.00329292
0.0021234
0.00372192
0.00109129
0.00410907
0.00442699
0.0084507
8.96093e-17
0.0084507
1.10318e-17
0.0084507
1.57779e-15
0.0084507
-2.27763e-14
0.0084507
3.78968e-13
0.0084507
-7.9081e-13
0.0084507
2.4735e-11
0.0084507
-1.65009e-11
0.00845068
1.84978e-09
0.00845048
-5.62374e-09
0.00844877
1.39936e-07
0.00843363
-9.04479e-07
0.00831195
7.82756e-06
0.0075836
6.67601e-05
0.00662497
0.000158006
0.00622053
0.00392226
0.00726204
0.00390672
0.00648283
0.00321683
0.00559208
0.00345378
0.00480039
0.00357083
0.00398305
0.0038239
0.00315771
0.00409823
0.00220786
0.00465526
0.00112441
0.0052047
0.00556229
0.0084507
4.99546e-17
0.0084507
-5.80861e-17
0.0084507
-3.91256e-15
0.0084507
-2.64809e-14
0.0084507
2.69431e-13
0.0084507
-1.35441e-12
0.0084507
3.24047e-11
0.0084507
3.19498e-11
0.00845068
2.0351e-09
0.00845052
1.59827e-09
0.00844916
1.40162e-07
0.00843597
-4.73403e-07
0.0083382
7.33934e-06
0.00767567
6.19353e-05
0.0067019
0.000130712
0.00645687
0.00370258
0.0075605
0.00518518
0.00672261
0.00405461
0.00584541
0.00428115
0.00502654
0.00443374
0.00417827
0.00463939
0.00330509
0.0049504
0.00225952
0.00568578
0.00117541
0.00628652
0.00676318
0.0084507
-5.12286e-17
0.0084507
5.82596e-16
0.0084507
1.34821e-16
0.0084507
2.86899e-14
0.0084507
-5.69784e-13
0.0084507
-8.6946e-13
0.0084507
2.29819e-11
0.0084507
3.65611e-11
0.00845069
1.29293e-09
0.00845056
5.66597e-09
0.00844974
8.28916e-08
0.00843854
5.60332e-07
0.00836372
5.66119e-06
0.00778044
5.15828e-05
0.00677605
0.000124605
0.00677274
0.0030031
0.00812909
0.00634955
0.0072107
0.00498931
0.0063059
0.00514887
0.00538504
0.00543023
0.00463
0.00539617
0.00364231
0.00594102
0.00251281
0.00681564
0.00143885
0.0073776
0.00822181
0.0084507
-4.45336e-17
0.0084507
3.38515e-16
0.0084507
5.38537e-15
0.0084507
1.627e-14
0.0084507
1.04864e-13
0.0084507
1.39988e-12
0.0084507
-5.24777e-12
0.0084507
2.33998e-11
0.0084507
7.92908e-10
0.00845057
5.40753e-09
0.00844999
6.06873e-08
0.00844077
4.8917e-07
0.00838136
4.86289e-06
0.00786274
4.52182e-05
0.00679448
0.000197977
0.00677198
0.00224627
0.00858445
0.00706087
0.00774404
0.00584897
0.00688579
0.00597463
0.00593855
0.00646375
0.00503712
0.00631396
0.00393316
0.00705086
0.00285132
0.0078994
0.00161339
0.00860873
0.00992155
0.0084507
8.43238e-17
0.0084507
-1.96295e-16
0.0084507
4.93553e-15
0.0084507
-9.38599e-15
0.0084507
2.29883e-13
0.0084507
1.60624e-12
0.0084507
-3.29769e-11
0.0084507
2.3339e-11
0.0084507
5.29348e-10
0.00845059
5.28834e-09
0.0084502
4.53445e-08
0.00844277
4.22511e-07
0.00839844
3.94201e-06
0.00796491
3.75382e-05
0.00693472
0.000237092
0.00667686
0.00170076
0.00869426
0.00743622
0.00810583
0.00645451
0.0074377
0.00664034
0.0066874
0.0072783
0.00570303
0.00736467
0.00469193
0.00809067
0.00366814
0.00899053
0.00243049
0.00988642
0.012493
0.0084507
3.59684e-17
0.0084507
3.20056e-16
0.0084507
1.5158e-15
0.0084507
3.1506e-14
0.0084507
1.80783e-13
0.0084507
1.81894e-12
0.0084507
2.69886e-11
0.0084507
1.90231e-10
0.0084507
-8.25204e-11
0.00845059
8.76499e-09
0.00845043
1.94617e-08
0.00844396
-2.97215e-07
0.00841273
3.58413e-06
0.00810836
-5.20141e-05
0.0071598
0.0002612
0.00664813
0.00137463
0.00861648
0.00771216
0.0083845
0.00672895
0.00791336
0.00710998
0.00727599
0.0079677
0.00644081
0.00824103
0.00542198
0.0091556
0.00433767
0.0101113
0.00262917
0.0116146
0.0156252
0.0084507
1.03704e-16
0.0084507
8.17759e-17
0.0084507
4.0686e-15
0.0084507
2.91005e-14
0.0084507
3.19689e-13
0.0084507
2.56623e-12
0.0084507
8.86148e-12
0.0084507
1.65955e-10
0.0084507
-7.03162e-11
0.00845065
7.81884e-09
0.00845026
2.35024e-08
0.00844653
-3.65232e-07
0.00841651
3.56588e-06
0.00815767
-5.58898e-05
0.00725983
0.000247053
0.00662029
0.0011292
0.00833315
0.00762582
0.00857039
0.00705361
0.00827987
0.00744043
0.00777689
0.00845987
0.00711518
0.00895498
0.00645336
0.00990722
0.00596581
0.0108144
0.00566424
0.0122701
0.0133382
0.00869483
0.0084507
5.5213e-17
0.0084507
-8.83354e-17
0.0084507
2.51112e-15
0.0084507
4.00992e-15
0.0084507
1.7923e-13
0.0084507
1.94468e-13
0.0084507
3.82318e-12
0.0084507
2.44323e-11
0.0084507
2.45713e-10
0.0084507
2.31064e-09
0.00845034
1.25568e-08
0.00844886
2.20902e-07
0.0084285
3.04159e-07
0.00821846
2.02052e-05
0.0073876
0.000189321
0.00666355
0.00090927
0.00764376
0.00751197
0.0083098
0.00761057
0.00825114
0.00754674
0.00818356
0.0085036
0.00776685
0.00936192
0.00748901
0.0102073
0.00761396
0.0107408
0.0079878
0.0116912
0.0119111
0.010267
0.0084507
8.45678e-18
0.0084507
1.71223e-16
0.0084507
2.95987e-17
0.0084507
6.15946e-15
0.0084507
3.22019e-14
0.0084507
-1.90707e-13
0.0084507
2.98754e-12
0.0084507
1.12819e-11
0.0084507
1.3266e-10
0.00845068
2.36705e-09
0.00845051
4.70995e-09
0.00844911
1.90898e-07
0.00843604
-4.66792e-07
0.00834071
1.28669e-05
0.00771428
0.00012554
0.00693582
0.00062292
0.00763406
0.00645521
0.00865961
0.00884091
0.0082593
0.00787505
0.00829983
0.00843472
0.00834884
0.00934358
0.00848137
0.0101256
0.00876128
0.0106371
0.00928422
0.0111571
0.0111308
0.0107039
0.0084507
1.76996e-17
0.0084507
7.58399e-17
0.0084507
-4.20698e-16
0.0084507
4.5691e-15
0.0084507
-2.78605e-14
0.0084507
-8.18134e-14
0.0084507
9.74574e-13
0.0084507
-1.52649e-11
0.0084507
4.24944e-11
0.0084507
1.63816e-09
0.00845058
9.73274e-09
0.00844993
1.18499e-07
0.00844004
9.02773e-07
0.00838054
8.73952e-06
0.00788326
8.35822e-05
0.00703225
0.000409536
0.00774026
0.00473717
0.00934528
0.00998489
0.00881783
0.00843879
0.00857382
0.00859762
0.00869765
0.00921766
0.00901624
0.00991057
0.00946054
0.0103504
0.00997624
0.0107542
0.0104932
0.0110647
0.0084507
1.54228e-17
0.0084507
6.69495e-18
0.0084507
3.61609e-16
0.0084507
1.00698e-15
0.0084507
9.50254e-15
0.0084507
1.62371e-13
0.0084507
9.07671e-13
0.0084507
2.81007e-11
0.0084507
2.80943e-10
0.00845071
-1.28022e-10
0.00845059
9.58503e-09
0.0084504
4.52884e-08
0.00844362
3.41901e-07
0.00841104
5.7504e-06
0.00807945
1.18464e-07
0.00715148
0.000384418
0.00761354
0.00312054
0.0100298
0.0102803
0.00957005
0.00906597
0.0092217
0.00905772
0.00913303
0.00931433
0.00935807
0.00975521
0.00981586
0.00999046
0.0103732
0.0103021
0.00984231
0.0113821
0.0084507
8.10441e-18
0.0084507
-2.72135e-17
0.0084507
1.16606e-16
0.0084507
-8.73542e-16
0.0084507
-1.57198e-14
0.0084507
2.26246e-13
0.0084507
-7.89901e-13
0.0084507
1.53665e-11
0.0084507
1.80266e-10
0.0084507
-6.7562e-11
0.00845066
7.9036e-09
0.00845029
4.20123e-08
0.0084469
1.95524e-07
0.00841974
4.65023e-06
0.00819565
-1.69414e-05
0.00736538
0.000324934
0.00735156
0.00196733
0.00995335
0.0091141
0.0103054
0.00977935
0.0100046
0.00957191
0.00972973
0.00957524
0.00974285
0.00972051
0.0100376
0.00974292
0.0105786
0.00989009
0.00940963
0.0112951
0.0084507
-3.25261e-19
0.0084507
2.54788e-17
0.0084507
5.54569e-17
0.0084507
4.32659e-15
0.0084507
2.23339e-14
0.0084507
2.10154e-14
0.0084507
1.22124e-12
0.0084507
4.58969e-12
0.0084507
1.38292e-10
0.0084507
5.85331e-10
0.00845071
2.65097e-09
0.00845042
3.29852e-08
0.00844978
2.34542e-07
0.00843435
2.42114e-06
0.00830882
2.03945e-05
0.0076686
0.00018815
0.00724191
0.00119607
0.00890808
0.00734068
0.0103766
0.010398
0.0101645
0.00984105
0.0100544
0.00961475
0.0100736
0.00968002
0.0102826
0.0095953
0.010696
0.00958149
0.00911934
0.0111973
0.0084507
6.23416e-19
0.0084507
5.50504e-17
0.0084507
2.64518e-16
0.0084507
1.81921e-15
0.0084507
2.03779e-14
0.0084507
1.6658e-14
0.0084507
1.30077e-12
0.0084507
5.29769e-12
0.0084507
3.96834e-11
0.0084507
4.5929e-10
0.0084507
1.757e-10
0.00845056
1.59071e-08
0.00845018
7.86593e-08
0.00844156
8.4234e-07
0.00839546
9.68667e-06
0.0080008
4.16236e-05
0.00732923
0.000758086
0.00850013
0.00497734
0.0109361
0.0108636
0.0106991
0.0100746
0.0106746
0.00984339
0.0106308
0.00974047
0.0107145
0.00958424
0.0109418
0.00945466
0.00894403
0.0112802
0.0084507
-5.96311e-19
0.0084507
2.5804e-17
0.0084507
6.76542e-17
0.0084507
3.13768e-16
0.0084507
1.78194e-15
0.0084507
1.0409e-14
0.0084507
4.56046e-13
0.0084507
2.28119e-12
0.0084507
3.80609e-12
0.0084507
1.27666e-10
0.0084507
3.6661e-10
0.00845064
7.90578e-09
0.00845016
6.62568e-08
0.00844593
3.37593e-07
0.00841206
6.59531e-06
0.00815327
-3.16245e-07
0.00741574
0.000476843
0.00814524
0.00295604
0.0112766
0.0097402
0.0115328
0.0106375
0.0113274
0.0103247
0.0111505
0.00998469
0.0110987
0.00967751
0.0111899
0.00943031
0.00890164
0.0113589
0.0084507
1.70762e-18
0.0084507
-2.73761e-18
0.0084507
7.18013e-17
0.0084507
3.00216e-16
0.0084507
5.7875e-15
0.0084507
5.39201e-14
0.0084507
4.12433e-14
0.0084507
2.17288e-12
0.0084507
2.65336e-12
0.0084507
1.34271e-10
0.0084507
9.84366e-10
0.00845071
2.15774e-09
0.0084503
4.77431e-08
0.00844977
2.63683e-07
0.00842881
2.76829e-06
0.00828562
3.8719e-05
0.00786783
-6.94515e-05
0.00798643
0.0016697
0.010245
0.00782005
0.0117866
0.0111971
0.0116425
0.0107087
0.0114655
0.0101102
0.0114005
0.0097372
0.0114481
0.0094299
0.00890905
0.0115448
0.0084507
1.43657e-18
0.0084507
-5.52943e-18
0.0084507
1.17094e-17
0.0084507
1.73472e-18
0.0084507
3.06171e-15
0.0084507
3.144e-14
0.0084507
2.35923e-14
0.0084507
8.41526e-13
0.0084507
-2.24148e-12
0.0084507
6.86886e-11
0.0084507
5.19374e-10
0.00845069
9.28458e-10
0.00845059
1.60039e-08
0.00844975
7.44675e-08
0.00844276
9.95833e-07
0.00838756
2.32297e-05
0.00803887
-0.000192621
0.00742765
0.00103863
0.00892604
0.00507227
0.0118551
0.0109933
0.011866
0.0108124
0.0118946
0.0103093
0.0117943
0.00989635
0.0117648
0.00950104
0.00897387
0.0117829
0.0084507
3.52366e-19
0.0084507
4.44523e-18
0.0084507
2.6048e-17
0.0084507
3.98526e-16
0.0084507
2.92491e-16
0.0084507
1.29568e-14
0.0084507
3.96522e-14
0.0084507
7.08641e-13
0.0084507
6.95538e-12
0.0084507
1.02716e-11
0.0084507
2.96752e-10
0.0084507
1.21334e-09
0.00845054
1.82197e-08
0.00845063
1.40798e-07
0.0084517
4.24627e-07
0.00841533
6.34733e-06
0.00809266
5.14773e-05
0.00764876
7.68266e-06
0.00865254
0.00299859
0.0118496
0.00920584
0.0126587
0.0112679
0.0124891
0.0107992
0.0123336
0.0101364
0.0122049
0.00968468
0.00914284
0.0121041
0.0084507
8.13152e-20
0.0084507
3.08998e-18
0.0084507
6.31548e-18
0.0084507
2.68882e-16
0.0084507
1.85399e-16
0.0084507
5.51184e-15
0.0084507
1.50425e-14
0.0084507
2.70206e-13
0.0084507
4.27069e-12
0.0084507
6.62966e-12
0.0084507
1.12704e-10
0.0084507
4.02176e-10
0.00845069
6.59828e-09
0.00845054
7.07929e-08
0.0084493
1.13011e-07
0.00843913
2.18983e-06
0.00835905
2.78493e-05
0.0079814
-0.000252137
0.0078088
0.00175226
0.00993522
0.00669003
0.0126105
0.0112868
0.0125829
0.0109143
0.0126625
0.0103043
0.0125555
0.00988229
0.00932534
0.0124307
0.0084507
1.35525e-19
0.0084507
7.86047e-19
0.0084507
3.38813e-18
0.0084507
4.11184e-17
0.0084507
6.50521e-17
0.0084507
1.7132e-15
0.0084507
-4.57045e-15
0.0084507
6.55997e-14
0.0084507
7.19698e-13
0.0084507
3.43473e-12
0.0084507
3.63027e-11
0.0084507
2.7252e-10
0.0084507
1.97237e-09
0.00845055
3.0026e-08
0.00845074
2.00275e-07
0.00845147
7.56758e-07
0.0084057
8.44135e-06
0.00801835
7.23625e-05
0.007795
0.000288208
0.00940771
0.00395639
0.0128411
0.00991821
0.0134209
0.0113614
0.0131913
0.0108352
0.0129669
0.0101472
0.00955928
0.0127707
0.0084507
0
0.0084507
8.67362e-19
0.0084507
1.38236e-18
0.0084507
2.13046e-17
0.0084507
-9.97466e-18
0.0084507
1.18455e-15
0.0084507
-1.07665e-14
0.0084507
2.89313e-14
0.0084507
1.45466e-13
0.0084507
1.00855e-12
0.0084507
2.03699e-12
0.0084507
1.55817e-10
0.0084507
5.76485e-10
0.00845068
1.13283e-08
0.0084505
9.01734e-08
0.00844895
1.84953e-07
0.00843588
2.40897e-06
0.0083452
3.42994e-05
0.00800671
-0.000165588
0.0084259
0.00197929
0.0111936
0.00727137
0.0135584
0.0114595
0.0134075
0.0111091
0.0133108
0.0103607
0.00981194
0.0131091
0.0084507
-1.89735e-19
0.0084507
5.96311e-19
0.0084507
-3.25261e-19
0.0084507
5.42101e-19
0.0084507
2.60209e-17
0.0084507
1.92202e-16
0.0084507
8.69828e-16
0.0084507
1.66415e-14
0.0084507
1.03557e-13
0.0084507
5.55513e-13
0.0084507
1.33533e-11
0.0084507
3.14474e-11
0.0084507
5.33018e-10
0.0084507
4.12711e-09
0.00845056
3.09539e-08
0.00845057
2.38313e-07
0.00845166
1.10544e-06
0.00840458
1.09084e-05
0.00803626
9.25038e-05
0.00781796
0.000390393
0.00966484
0.00432464
0.013414
0.0100101
0.0139171
0.0113226
0.013675
0.0108245
0.0100736
0.0134261
0.0084507
2.43945e-19
0.0084507
7.58942e-19
0.0084507
4.33681e-19
0.0084507
8.13152e-20
0.0084507
5.04154e-18
0.0084507
7.28313e-17
0.0084507
3.46132e-16
0.0084507
5.57266e-15
0.0084507
4.09513e-14
0.0084507
3.28612e-13
0.0084507
7.01305e-12
0.0084507
-8.39305e-13
0.0084507
2.00028e-10
0.0084507
1.54984e-09
0.00845067
1.54809e-08
0.00845046
9.98025e-08
0.00844884
2.84191e-07
0.00843541
2.67008e-06
0.00834842
3.82026e-05
0.00806007
-0.00017472
0.00865345
0.00218889
0.0116897
0.00738621
0.013911
0.0113448
0.0137582
0.011037
0.0102097
0.013712
0.0084507
3.25261e-19
0.0084507
5.69206e-19
0.0084507
9.21572e-19
0.0084507
1.24683e-18
0.0084507
6.09864e-18
0.0084507
3.69984e-17
0.0084507
4.39021e-16
0.0084507
3.52466e-15
0.0084507
8.76455e-15
0.0084507
1.70444e-13
0.0084507
7.27247e-13
0.0084507
9.49648e-12
0.0084507
3.50791e-11
0.0084507
7.38294e-10
0.0084507
2.61704e-09
0.0084505
4.18986e-08
0.00845082
2.46681e-07
0.00845212
1.30282e-06
0.00840931
5.47346e-06
0.00806851
9.02227e-05
0.00777572
0.000609916
0.00970437
0.0043365
0.0135476
0.00970178
0.0141671
0.0111437
0.0106584
0.0139862
0.0084507
-2.71051e-19
0.0084507
-9.48677e-19
0.0084507
-1.65341e-18
0.0084507
-2.1684e-18
0.0084507
-6.50521e-19
0.0084507
1.10047e-17
0.0084507
1.51436e-16
0.0084507
1.75671e-15
0.0084507
8.62917e-16
0.0084507
7.22951e-14
0.0084507
1.55767e-13
0.0084507
3.81412e-12
0.0084507
1.08675e-11
0.0084507
3.12763e-10
0.0084507
5.74818e-10
0.00845068
1.54291e-08
0.00845049
8.66856e-08
0.00844907
3.87778e-07
0.00843661
-3.9197e-06
0.00836806
2.92799e-05
0.00812598
-4.67737e-05
0.00880661
0.00214086
0.0118033
0.00707186
0.0142156
0.0109973
0.0108035
0.0141204
0.0084507
-5.42101e-20
0.0084507
-4.87891e-19
0.0084507
-7.58942e-19
0.0084507
-1.76183e-18
0.0084507
-3.65918e-18
0.0084507
7.15573e-18
0.0084507
3.55889e-17
0.0084507
3.54155e-16
0.0084507
1.71358e-15
0.0084507
1.08622e-14
0.0084507
1.21842e-13
0.0084507
1.56428e-12
0.0084507
4.84427e-12
0.0084507
7.38243e-11
0.0084507
5.20281e-10
0.0084507
3.58469e-09
0.00845067
1.76955e-08
0.00845096
2.07356e-07
0.00844588
1.02244e-06
0.00840762
9.0611e-07
0.00815065
9.44949e-05
0.00780999
0.000769289
0.00979554
0.0039616
0.0137472
0.00901045
0.0109103
0.0146529
0.0084507
1.6263e-19
0.0084507
2.43945e-19
0.0084507
0
0.0084507
4.87891e-19
0.0084507
-4.06576e-19
0.0084507
2.03288e-18
0.0084507
5.14996e-18
0.0084507
1.50108e-16
0.0084507
8.98966e-16
0.0084507
-2.10804e-15
0.0084507
6.45064e-14
0.0084507
5.44564e-13
0.0084507
5.34422e-13
0.0084507
2.55728e-11
0.0084507
1.28955e-10
0.0084507
1.67166e-09
0.0084507
1.83764e-09
0.00845051
7.99557e-08
0.00844972
1.38523e-07
0.00843939
-7.87147e-06
0.00839693
2.75282e-05
0.00821761
9.0721e-05
0.00875979
0.00192078
0.0115281
0.00631537
0.0103057
0.0144773
0.0084507
-2.43945e-19
0.0084507
-4.33681e-19
0.0084507
-1.0842e-19
0.0084507
-1.0842e-19
0.0084507
8.94467e-19
0.0084507
-1.49078e-18
0.0084507
7.86047e-19
0.0084507
3.22279e-17
0.0084507
2.85579e-16
0.0084507
2.01152e-15
0.0084507
2.78397e-14
0.0084507
1.26285e-13
0.0084507
9.18554e-13
0.0084507
7.09312e-12
0.0084507
4.14626e-11
0.0084507
5.05875e-10
0.00845072
-6.38134e-09
0.00845078
1.4451e-08
0.0084508
1.29439e-07
0.00844234
5.92024e-07
0.00841217
8.16403e-06
0.00826265
8.30561e-05
0.00784162
0.000863009
0.00958039
0.00332483
0.00780625
0.0135028
0.0084507
-5.14996e-19
0.0084507
-6.77626e-19
0.0084507
-8.13152e-19
0.0084507
-1.0571e-18
0.0084507
-2.03288e-18
0.0084507
-1.65341e-18
0.0084507
-4.44523e-18
0.0084507
1.3146e-17
0.0084507
1.86916e-16
0.0084507
8.93355e-16
0.0084507
8.79665e-15
0.0084507
6.17265e-14
0.0084507
1.23797e-13
0.0084507
1.59988e-12
0.0084507
7.69361e-12
0.0084507
9.52035e-11
0.0084507
3.13398e-10
0.00845068
5.57427e-10
0.00845052
5.60776e-08
0.00844944
-2.03386e-07
0.0084406
1.15972e-06
0.0084106
1.09047e-05
0.00828797
0.000225488
0.00927946
0.000565993
0.0054482
0.0116294
0.0084507
-3.52366e-19
0.0084507
2.43945e-19
0.0084507
-5.42101e-20
0.0084507
2.1684e-19
0.0084507
-2.71051e-19
0.0084507
-3.52366e-19
0.0084507
-1.0842e-19
0.0084507
4.66207e-18
0.0084507
5.03883e-17
0.0084507
4.23733e-16
0.0084507
1.14871e-16
0.0084507
1.98425e-14
0.0084507
7.12144e-14
0.0084507
5.30036e-13
0.0084507
5.62604e-12
0.0084507
4.01397e-11
0.0084507
2.73707e-10
0.0084507
1.90888e-09
0.00845069
1.81003e-08
0.0084503
-5.72187e-08
0.0084479
1.15107e-06
0.00843681
-3.79283e-06
0.00840284
8.60035e-05
0.00827825
-0.000372552
0.00288515
0.0095614
0.0084507
-1.0842e-19
0.0084507
4.06576e-19
0.0084507
7.86047e-19
0.0084507
4.33681e-19
0.0084507
2.98156e-19
0.0084507
1.27394e-18
0.0084507
1.97867e-18
0.0084507
4.17418e-18
0.0084507
9.54098e-18
0.0084507
1.26391e-16
0.0084507
-1.23247e-16
0.0084507
6.63396e-15
0.0084507
3.03783e-14
0.0084507
1.99704e-13
0.0084507
2.3033e-12
0.0084507
7.54303e-12
0.0084507
9.42133e-11
0.0084507
3.22544e-10
0.00845069
5.28788e-09
0.00845055
3.08886e-08
0.00845033
1.22864e-07
0.00843496
2.46588e-06
0.00851207
1.80259e-05
0.00805351
8.61052e-05
0.000981938
0.00786498
0.0084507
4.60786e-19
0.0084507
2.43945e-19
0.0084507
-5.42101e-20
0.0084507
5.14996e-19
0.0084507
7.31836e-19
0.0084507
1.70762e-18
0.0084507
2.49366e-18
0.0084507
1.11131e-18
0.0084507
8.51099e-18
0.0084507
2.5018e-17
0.0084507
1.8567e-16
0.0084507
1.4338e-15
0.0084507
1.23278e-14
0.0084507
6.78535e-14
0.0084507
7.47296e-13
0.0084507
2.22151e-12
0.0084507
3.59464e-11
0.0084507
1.05357e-10
0.0084507
2.17188e-09
0.00845072
8.76605e-09
0.00845043
1.27298e-07
0.00845094
2.01395e-07
0.00844121
6.7791e-06
0.00842322
1.58574e-05
0.000181134
0.00834806
0.0084507
1.0842e-19
0.0084507
3.52366e-19
0.0084507
8.13152e-20
0.0084507
1.32815e-18
0.0084507
4.87891e-19
0.0084507
1.19262e-18
0.0084507
8.94467e-19
0.0084507
-8.40257e-19
0.0084507
5.61075e-18
0.0084507
5.14996e-19
0.0084507
5.96582e-17
0.0084507
3.71854e-16
0.0084507
4.06768e-15
0.0084507
2.89462e-14
0.0084507
2.15423e-13
0.0084507
6.68291e-13
0.0084507
1.0389e-11
0.0084507
1.19628e-11
0.0084507
4.38203e-10
0.0084507
1.88366e-09
0.00845072
3.20039e-08
0.00845069
-3.82105e-07
0.00845289
1.41991e-06
0.00843142
1.04932e-05
3.44389e-05
0.0084477
0.0084507
-2.43945e-19
0.0084507
2.71051e-20
0.0084507
1.0842e-19
0.0084507
9.48677e-19
0.0084507
2.71051e-19
0.0084507
3.79471e-19
0.0084507
8.13152e-20
0.0084507
3.79471e-19
0.0084507
1.51788e-18
0.0084507
1.49078e-18
0.0084507
2.15214e-17
0.0084507
7.55689e-17
0.0084507
7.17281e-16
0.0084507
5.37518e-15
0.0084507
5.01813e-14
0.0084507
4.43085e-13
0.0084507
2.94496e-12
0.0084507
2.48432e-11
0.0084507
1.8704e-10
0.0084507
7.32711e-10
0.00845069
9.40813e-10
0.00845056
5.02256e-08
0.00845032
2.37235e-08
0.00845082
2.57147e-06
-2.75396e-05
0.00846288
0.0084507
4.06576e-19
0.0084507
6.23416e-19
0.0084507
7.31836e-19
0.0084507
3.25261e-19
0.0084507
1.35525e-19
0.0084507
-5.14996e-19
0.0084507
-8.94467e-19
0.0084507
-1.21973e-18
0.0084507
-1.30104e-18
0.0084507
-2.49366e-18
0.0084507
6.39679e-18
0.0084507
1.37152e-17
0.0084507
-2.54516e-16
0.0084507
1.88776e-15
0.0084507
-9.52797e-16
0.0084507
1.27773e-13
0.0084507
1.02301e-12
0.0084507
8.25644e-12
0.0084507
6.74693e-11
0.0084507
1.45456e-10
0.0084507
7.683e-10
0.00845074
1.65807e-08
0.00845062
7.76843e-08
0.00844956
6.15733e-07
5.30279e-06
0.00842882
0.0084507
1.6263e-19
0.0084507
1.0842e-19
0.0084507
2.43945e-19
0.0084507
-4.60786e-19
0.0084507
-3.25261e-19
0.0084507
-7.86047e-19
0.0084507
-9.75782e-19
0.0084507
-1.46367e-18
0.0084507
-1.13841e-18
0.0084507
-1.49078e-18
0.0084507
1.57209e-18
0.0084507
6.09864e-18
0.0084507
6.28024e-17
0.0084507
5.41749e-16
0.0084507
4.43371e-15
0.0084507
3.07633e-14
0.0084507
3.45435e-13
0.0084507
1.41616e-12
0.0084507
1.81625e-11
0.0084507
9.04578e-11
0.0084507
6.19971e-10
0.0084507
5.17206e-09
0.00845068
1.2965e-08
0.00845058
1.20422e-07
8.95699e-07
0.00845044
0.0084507
-2.43945e-19
0.0084507
-7.86047e-19
0.0084507
-3.52366e-19
0.0084507
2.71051e-20
0.0084507
3.79471e-19
0.0084507
4.06576e-19
0.0084507
5.69206e-19
0.0084507
5.42101e-19
0.0084507
1.13841e-18
0.0084507
1.84314e-18
0.0084507
2.54788e-18
0.0084507
6.20706e-18
0.0084507
-1.61546e-17
0.0084507
2.42102e-16
0.0084507
1.39228e-15
0.0084507
1.18944e-14
0.0084507
1.06879e-13
0.0084507
5.17469e-13
0.0084507
3.98643e-12
0.0084507
3.11618e-11
0.0084507
1.60259e-10
0.0084507
9.74591e-10
0.00845069
1.08407e-08
0.00845065
4.69165e-08
-3.81833e-07
0.00845055
0.0084507
4.60786e-19
0.0084507
4.06576e-19
0.0084507
6.50521e-19
0.0084507
8.67362e-19
0.0084507
8.94467e-19
0.0084507
5.69206e-19
0.0084507
9.75782e-19
0.0084507
9.75782e-19
0.0084507
1.32815e-18
0.0084507
1.35525e-18
0.0084507
1.73472e-18
0.0084507
3.11708e-18
0.0084507
-2.74303e-17
0.0084507
7.18826e-17
0.0084507
3.13605e-16
0.0084507
2.70777e-15
0.0084507
2.08728e-14
0.0084507
1.63235e-13
0.0084507
1.07698e-12
0.0084507
9.54081e-12
0.0084507
5.44755e-11
0.0084507
5.21095e-10
0.0084507
3.68004e-09
0.00845071
5.01893e-09
9.83349e-08
0.00845041
0.0084507
1.0842e-19
0.0084507
-1.0842e-19
0.0084507
-5.14996e-19
0.0084507
-1.32815e-18
0.0084507
-9.75782e-19
0.0084507
-9.75782e-19
0.0084507
-3.79471e-19
0.0084507
-2.71051e-19
0.0084507
-5.42101e-20
0.0084507
-1.89735e-19
0.0084507
5.42101e-20
0.0084507
-2.71051e-19
0.0084507
-5.96311e-19
0.0084507
1.7293e-17
0.0084507
1.23951e-16
0.0084507
6.65565e-16
0.0084507
2.73111e-16
0.0084507
3.54334e-14
0.0084507
3.36529e-13
0.0084507
1.44951e-12
0.0084507
1.95442e-11
0.0084507
9.15234e-11
0.0084507
7.97072e-10
0.0084507
4.13555e-09
2.04796e-08
0.00845069
0.0084507
-4.06576e-19
0.0084507
-9.75782e-19
0.0084507
-8.40257e-19
0.0084507
-1.32815e-18
0.0084507
-1.43657e-18
0.0084507
-1.40946e-18
0.0084507
-1.30104e-18
0.0084507
-2.22261e-18
0.0084507
-2.52077e-18
0.0084507
-2.35814e-18
0.0084507
-2.6834e-18
0.0084507
-2.22261e-18
0.0084507
-2.6563e-18
0.0084507
1.49078e-18
0.0084507
1.81604e-17
0.0084507
1.76129e-16
0.0084507
-2.53486e-15
0.0084507
1.15777e-14
0.0084507
7.21329e-14
0.0084507
3.93357e-13
0.0084507
4.11488e-12
0.0084507
2.5539e-11
0.0084507
1.44637e-10
0.00845071
1.6739e-10
6.74284e-09
0.0084507
0.0084507
-1.35525e-19
0.0084507
-2.71051e-19
0.0084507
-1.6263e-19
0.0084507
-2.71051e-20
0.0084507
1.0842e-19
0.0084507
-3.79471e-19
0.0084507
-1.89735e-19
0.0084507
-1.02999e-18
0.0084507
-1.21973e-18
0.0084507
-2.00577e-18
0.0084507
-2.1413e-18
0.0084507
-1.92446e-18
0.0084507
-1.95156e-18
0.0084507
-9.21572e-19
0.0084507
-6.23416e-19
0.0084507
3.78387e-17
0.0084507
7.23434e-17
0.0084507
1.59139e-15
0.0084507
2.20851e-14
0.0084507
5.8692e-14
0.0084507
1.639e-13
0.0084507
5.45572e-12
0.0084507
2.2866e-11
0.0084507
2.08121e-10
1.13127e-09
0.00845071
0.0084507
2.43945e-19
0.0084507
1.89735e-19
0.0084507
1.6263e-19
0.0084507
1.35525e-19
0.0084507
1.89735e-19
0.0084507
-5.96311e-19
0.0084507
-9.48677e-19
0.0084507
-1.24683e-18
0.0084507
-1.70762e-18
0.0084507
-2.05998e-18
0.0084507
-2.11419e-18
0.0084507
-2.30393e-18
0.0084507
-2.24972e-18
0.0084507
-1.51788e-18
0.0084507
-3.95734e-18
0.0084507
4.47233e-18
0.0084507
1.98138e-17
0.0084507
-2.98698e-17
0.0084507
6.79028e-15
0.0084507
-3.09621e-14
0.0084507
2.67092e-13
0.0084507
7.63784e-13
0.0084507
5.57158e-12
0.0084507
3.16612e-11
2.90095e-10
0.0084507
0.0084507
1.89735e-19
0.0084507
5.96311e-19
0.0084507
5.42101e-19
0.0084507
5.42101e-19
0.0084507
7.31836e-19
0.0084507
2.71051e-19
0.0084507
-3.79471e-19
0.0084507
-5.69206e-19
0.0084507
-5.42101e-19
0.0084507
-8.67362e-19
0.0084507
-8.40257e-19
0.0084507
-1.81604e-18
0.0084507
-2.46656e-18
0.0084507
-2.43945e-18
0.0084507
-3.1984e-18
0.0084507
-1.95156e-18
0.0084507
-9.73071e-18
0.0084507
-1.49864e-16
0.0084507
2.22939e-15
0.0084507
-7.13134e-15
0.0084507
4.57163e-14
0.0084507
-7.22342e-13
0.0084507
-2.42223e-12
0.0084507
2.20877e-11
-4.74406e-12
0.0084507
0.0084507
7.52316e-36
0.0084507
2.43945e-19
0.0084507
1.89735e-19
0.0084507
5.42101e-20
0.0084507
1.0842e-19
0.0084507
2.71051e-20
0.0084507
5.42101e-19
0.0084507
8.13152e-19
0.0084507
9.48677e-19
0.0084507
-8.13152e-20
0.0084507
-1.6263e-19
0.0084507
-1.5992e-18
0.0084507
-2.03288e-18
0.0084507
-2.43945e-18
0.0084507
-3.55076e-18
0.0084507
-3.33392e-18
0.0084507
-3.7676e-18
0.0084507
-8.83625e-18
0.0084507
5.53079e-16
0.0084507
3.87385e-16
0.0084507
1.37944e-14
0.0084507
-2.40467e-13
0.0084507
-5.16628e-13
0.0084507
7.1092e-12
-1.10043e-11
0.0084507
0.0084507
-3.52366e-19
0.0084507
-7.58942e-19
0.0084507
-1.68051e-18
0.0084507
-2.03288e-18
0.0084507
-2.41235e-18
0.0084507
-2.62919e-18
0.0084507
-2.11419e-18
0.0084507
-2.24972e-18
0.0084507
-1.92446e-18
0.0084507
-1.6263e-18
0.0084507
-1.0842e-18
0.0084507
-6.77626e-19
0.0084507
-1.89735e-19
0.0084507
-5.42101e-19
0.0084507
-3.79471e-19
0.0084507
-1.13841e-18
0.0084507
1.30104e-18
0.0084507
1.77538e-17
0.0084507
1.24575e-16
0.0084507
2.46195e-16
0.0084507
3.49951e-15
0.0084507
3.21159e-14
0.0084507
2.35183e-13
0.0084507
2.24615e-12
-1.06951e-12
0.0084507
0.0084507
0.0084507
0.0084507
0.0084507
0.0084507
0.0084507
0.0084507
0.0084507
0.0084507
0.0084507
0.0084507
0.0084507
0.0084507
0.0084507
0.0084507
0.0084507
0.0084507
0.0084507
0.0084507
0.0084507
0.0084507
0.0084507
0.0084507
0.0084507
0.0084507
0.00294506
0.00438122
-8.05441e-05
0.00301736
-0.00161966
0.0015424
-0.00191708
0.000293808
-0.00191004
-3.16603e-06
-0.0019057
5.20854e-05
-0.00240315
0.000581112
-0.00295379
0.000475028
-0.00332255
0.000306558
-0.00348718
0.00016183
-0.00352263
3.5456e-05
-0.00350668
-1.22244e-05
-0.0034897
-3.00281e-07
-0.00344366
1.43584e-05
-0.00343765
-1.89748e-06
-0.00352003
3.13793e-05
-0.00359877
5.17421e-05
-0.00364702
4.44764e-05
-0.00365611
7.71593e-06
-0.00365339
2.57316e-06
-0.00364835
-1.91671e-06
-0.00364081
-2.57697e-06
-0.00364168
3.51611e-06
-0.00363356
-5.62611e-07
-0.0036337
2.50742e-06
-0.00363662
-3.19537e-06
-0.00364254
4.74361e-06
-0.00364572
-8.97862e-07
-0.00365227
3.51986e-06
-0.00365636
-2.35156e-06
-0.00367877
1.93421e-06
-0.00368358
-4.73568e-06
-0.0037045
-3.15345e-06
-0.00373076
-7.86575e-06
-0.00370027
-3.27456e-05
-0.00363283
-6.06349e-05
-0.00355098
-8.42959e-05
-0.00347071
-8.38462e-05
-0.00328087
-0.000176478
-0.00309435
-0.000176735
-0.00291355
-0.000181931
-0.00266245
-0.000234087
-0.00236887
-0.00028039
-0.00205963
-0.000296399
-0.00172563
-0.000318424
-0.00144305
-0.000278603
-0.00112128
-0.000316403
-0.000719316
-0.000393255
-0.000330323
-0.000385095
8.61947e-05
-0.00041447
0.000490791
-0.000406943
0.000852651
-0.000360366
0.00120921
-0.000356233
0.00154874
-0.000339698
0.00186767
-0.00032107
0.00216512
-0.00029847
0.00244709
-0.000280361
0.00271104
-0.00026178
0.00295078
-0.000238456
0.00317054
-0.000218044
0.00337327
-0.000201049
0.00356032
-0.000185361
0.00373221
-0.000170446
0.00388979
-0.00015605
0.00403388
-0.000142599
0.004167
-0.000130584
0.00429024
-0.00012008
0.00440289
-0.000109598
0.00450595
-0.000100331
0.00460018
-9.13887e-05
0.00468733
-8.4194e-05
0.00476773
-7.74053e-05
0.00484194
-7.16943e-05
0.00490999
-6.59654e-05
0.00497297
-6.12256e-05
0.00503046
-5.62662e-05
0.00508308