/*--------------------------------*- C++ -*----------------------------------*\
| =========                 |                                                 |
| \\      /  F ield         | OpenFOAM: The Open Source CFD Toolbox           |
|  \\    /   O peration     | Version:  v2106                                 |
|   \\  /    A nd           | Website:  www.openfoam.com                      |
|    \\/     M anipulation  |                                                 |
\*---------------------------------------------------------------------------*/
FoamFile
{
    version     2.0;
    format      ascii;
    arch        "LSB;label=32;scalar=64";
    class       volScalarField;
    location    "16";
    object      rho;
}
// * * * * * * * * * * * * * * * * * * * * * * * * * * * * * * * * * * * * * //

dimensions      [1 -3 0 0 0 0 0];

internalField   nonuniform List<scalar> 
5250
(
1.40845
1.40845
1.40845
1.40845
1.40845
1.40845
1.40845
1.40845
1.40845
1.40841
1.40814
1.40546
1.39596
1.51372
2.04266
4.69694
7.16685
6.36205
6.5014
6.60599
6.61142
6.64851
6.65499
6.66987
6.67595
1.40845
1.40845
1.40845
1.40845
1.40845
1.40845
1.40845
1.40845
1.40845
1.40841
1.40815
1.40564
1.39559
1.50805
2.04618
4.64252
7.27687
6.40171
6.54236
6.64036
6.63584
6.65965
6.66253
6.67253
6.67792
1.40845
1.40845
1.40845
1.40845
1.40845
1.40845
1.40845
1.40845
1.40845
1.40842
1.40817
1.40601
1.39498
1.49585
2.06
4.4815
7.46099
6.46556
6.61451
6.69242
6.66793
6.67517
6.6616
6.66484
6.66491
1.40845
1.40845
1.40845
1.40845
1.40845
1.40845
1.40845
1.40845
1.40845
1.40842
1.40819
1.4065
1.39467
1.47922
2.04398
4.17635
7.72645
6.55745
6.72051
6.77241
6.71727
6.69912
6.6585
6.64929
6.64284
1.40845
1.40845
1.40845
1.40845
1.40845
1.40845
1.40845
1.40845
1.40845
1.40843
1.40822
1.40696
1.39484
1.46238
1.97399
3.70018
7.9022
6.67429
6.8695
6.89924
6.78616
6.71527
6.65496
6.62081
6.61002
1.40845
1.40845
1.40845
1.40845
1.40845
1.40845
1.40845
1.40845
1.40845
1.40843
1.40827
1.40723
1.39524
1.44602
1.89197
3.30146
7.66738
6.5962
6.8138
6.96286
6.88605
6.78177
6.64823
6.58953
6.55543
1.40845
1.40845
1.40845
1.40845
1.40845
1.40845
1.40845
1.40845
1.40845
1.40844
1.40828
1.4075
1.39624
1.4314
1.80506
2.89385
7.19904
6.45378
6.682
6.90062
6.88955
6.83528
6.65997
6.53032
6.49869
1.40845
1.40845
1.40845
1.40845
1.40845
1.40845
1.40845
1.40845
1.40845
1.40845
1.40827
1.40785
1.39767
1.42079
1.75259
2.60937
6.68656
6.24431
6.46266
6.74623
6.84544
6.80319
6.6598
6.48462
6.40023
1.40845
1.40845
1.40845
1.40845
1.40845
1.40845
1.40845
1.40845
1.40845
1.40845
1.4083
1.40807
1.39946
1.41071
1.67938
2.36706
6.27326
6.02683
6.20438
6.50209
6.70819
6.72123
6.59835
6.36212
6.26399
1.40845
1.40845
1.40845
1.40845
1.40845
1.40845
1.40845
1.40845
1.40845
1.40846
1.4083
1.4084
1.39995
1.41079
1.61912
2.17585
5.86555
5.98731
6.0216
6.16888
6.43796
6.61075
6.4486
6.34725
6.03694
1.40845
1.40845
1.40845
1.40845
1.40845
1.40845
1.40845
1.40845
1.40845
1.40845
1.40839
1.40809
1.40412
1.39951
1.55054
1.97122
5.1652
6.1411
5.99012
5.97669
6.08247
6.32327
6.27652
6.18452
5.03724
1.40845
1.40845
1.40845
1.40845
1.40845
1.40845
1.40845
1.40845
1.40845
1.40844
1.40846
1.40793
1.40725
1.3878
1.48843
1.82131
4.41677
6.35887
5.92164
5.86466
5.85666
5.9582
5.86294
5.68408
5.18747
1.40845
1.40845
1.40845
1.40845
1.40845
1.40845
1.40845
1.40845
1.40845
1.40845
1.40843
1.40825
1.40727
1.39533
1.44793
1.86962
3.55699
6.6751
5.95179
5.81153
5.76068
5.72859
5.62391
5.39615
5.24909
1.40845
1.40845
1.40845
1.40845
1.40845
1.40845
1.40845
1.40845
1.40845
1.40845
1.40844
1.40831
1.40769
1.3974
1.42051
1.75604
2.77896
6.40892
6.02961
5.80828
5.69309
5.58708
5.44011
5.22426
5.13166
1.40845
1.40845
1.40845
1.40845
1.40845
1.40845
1.40845
1.40845
1.40845
1.40845
1.40846
1.40829
1.40832
1.39971
1.41142
1.63086
2.26905
5.67297
6.03791
5.87389
5.67141
5.49172
5.2981
5.07934
4.92043
1.40845
1.40845
1.40845
1.40845
1.40845
1.40845
1.40845
1.40845
1.40845
1.40845
1.40845
1.4084
1.40811
1.40469
1.40004
1.5259
1.87508
4.52639
6.07631
5.96727
5.71804
5.44063
5.21729
5.00078
4.76081
1.40845
1.40845
1.40845
1.40845
1.40845
1.40845
1.40845
1.40845
1.40845
1.40845
1.40844
1.40847
1.40805
1.40799
1.39051
1.44661
1.6963
3.42739
5.90237
5.81621
5.62994
5.42257
5.19484
4.95346
4.68568
1.40845
1.40845
1.40845
1.40845
1.40845
1.40845
1.40845
1.40845
1.40845
1.40845
1.40845
1.40846
1.40824
1.40809
1.3976
1.42087
1.71836
2.54881
5.52724
5.66938
5.64587
5.44577
5.21466
4.95622
4.67875
1.40845
1.40845
1.40845
1.40845
1.40845
1.40845
1.40845
1.40845
1.40845
1.40845
1.40845
1.40845
1.40838
1.40802
1.40386
1.40121
1.57481
2.02066
4.6129
5.67748
5.67458
5.45756
5.22774
4.97167
4.68664
1.40845
1.40845
1.40845
1.40845
1.40845
1.40845
1.40845
1.40845
1.40845
1.40845
1.40845
1.40844
1.40848
1.40787
1.40832
1.38381
1.49098
1.65114
3.494
5.52944
5.59692
5.39001
5.18402
4.965
4.70817
1.40845
1.40845
1.40845
1.40845
1.40845
1.40845
1.40845
1.40845
1.40845
1.40845
1.40845
1.40845
1.40844
1.40834
1.40762
1.40202
1.41523
1.64691
2.41908
5.00237
5.35733
5.37675
5.19248
4.98134
4.73977
1.40845
1.40845
1.40845
1.40845
1.40845
1.40845
1.40845
1.40845
1.40845
1.40845
1.40845
1.40845
1.40842
1.40873
1.40692
1.41312
1.35749
1.56012
1.88547
3.95445
5.35023
5.3973
5.23575
5.03195
4.79092
1.40845
1.40845
1.40845
1.40845
1.40845
1.40845
1.40845
1.40845
1.40845
1.40845
1.40845
1.40845
1.40845
1.40844
1.40827
1.4074
1.39947
1.43894
1.62083
2.80843
5.04583
5.18506
5.19869
5.04107
4.82866
1.40845
1.40845
1.40845
1.40845
1.40845
1.40845
1.40845
1.40845
1.40845
1.40845
1.40845
1.40845
1.40845
1.40843
1.40881
1.40678
1.41207
1.34563
1.57365
2.06681
4.18528
5.22799
5.24412
5.07296
4.86451
1.40845
1.40845
1.40845
1.40845
1.40845
1.40845
1.40845
1.40845
1.40845
1.40845
1.40845
1.40845
1.40845
1.40845
1.40843
1.40822
1.40717
1.39717
1.46075
1.55681
3.06627
5.02847
5.12762
5.05451
4.87844
1.40845
1.40845
1.40845
1.40845
1.40845
1.40845
1.40845
1.40845
1.40845
1.40845
1.40845
1.40845
1.40845
1.40845
1.40845
1.40885
1.40644
1.41311
1.34811
1.52927
2.09209
4.18385
5.03471
5.05514
4.89004
1.40845
1.40845
1.40845
1.40845
1.40845
1.40845
1.40845
1.40845
1.40845
1.40845
1.40845
1.40845
1.40845
1.40845
1.40845
1.40843
1.40818
1.40723
1.39676
1.47139
1.57303
3.0543
4.8266
4.91118
4.8417
1.40845
1.40845
1.40845
1.40845
1.40845
1.40845
1.40845
1.40845
1.40845
1.40845
1.40845
1.40845
1.40845
1.40845
1.40845
1.40841
1.40889
1.40595
1.41542
1.34495
1.49706
2.04213
3.9889
4.8222
4.83804
1.40845
1.40845
1.40845
1.40845
1.40845
1.40845
1.40845
1.40845
1.40845
1.40845
1.40845
1.40845
1.40845
1.40845
1.40845
1.40845
1.40844
1.40817
1.40771
1.39473
1.46314
1.54647
2.91461
4.59317
4.70149
1.40845
1.40845
1.40845
1.40845
1.40845
1.40845
1.40845
1.40845
1.40845
1.40845
1.40845
1.40845
1.40845
1.40845
1.40845
1.40845
1.40843
1.40879
1.40555
1.41165
1.35469
1.49267
1.96593
3.71216
4.67206
1.40845
1.40845
1.40845
1.40845
1.40845
1.40845
1.40845
1.40845
1.40845
1.40845
1.40845
1.40845
1.40845
1.40845
1.40845
1.40845
1.40845
1.40845
1.40815
1.40784
1.39505
1.44451
1.50887
2.6558
4.30325
1.40845
1.40845
1.40845
1.40845
1.40845
1.40845
1.40845
1.40845
1.40845
1.40845
1.40845
1.40845
1.40845
1.40845
1.40845
1.40845
1.40845
1.40844
1.40864
1.40583
1.40789
1.36678
1.502
1.80622
3.32918
1.40845
1.40845
1.40845
1.40845
1.40845
1.40845
1.40845
1.40845
1.40845
1.40845
1.40845
1.40845
1.40845
1.40845
1.40845
1.40845
1.40845
1.40845
1.40843
1.40826
1.40768
1.39841
1.41919
1.54224
2.39254
1.40845
1.40845
1.40845
1.40845
1.40845
1.40845
1.40845
1.40845
1.40845
1.40845
1.40845
1.40845
1.40845
1.40845
1.40845
1.40845
1.40845
1.40845
1.40845
1.40842
1.40799
1.40709
1.38654
1.50345
1.68253
1.40845
1.40845
1.40845
1.40845
1.40845
1.40845
1.40845
1.40845
1.40845
1.40845
1.40845
1.40845
1.40845
1.40845
1.40845
1.40845
1.40845
1.40845
1.40845
1.40842
1.40837
1.40612
1.4341
1.30574
1.41001
1.40845
1.40845
1.40845
1.40845
1.40845
1.40845
1.40845
1.40845
1.40845
1.40845
1.40845
1.40845
1.40845
1.40845
1.40845
1.40845
1.40845
1.40845
1.40845
1.40844
1.40847
1.40816
1.40863
1.39416
1.4318
1.40845
1.40845
1.40845
1.40845
1.40845
1.40845
1.40845
1.40845
1.40845
1.40845
1.40845
1.40845
1.40845
1.40845
1.40845
1.40845
1.40845
1.40845
1.40845
1.40845
1.40844
1.40847
1.40823
1.40976
1.3686
1.40845
1.40845
1.40845
1.40845
1.40845
1.40845
1.40845
1.40845
1.40845
1.40845
1.40845
1.40845
1.40845
1.40845
1.40845
1.40845
1.40845
1.40845
1.40845
1.40845
1.40845
1.4084
1.40848
1.40761
1.41017
1.40845
1.40845
1.40845
1.40845
1.40845
1.40845
1.40845
1.40845
1.40845
1.40845
1.40845
1.40845
1.40845
1.40845
1.40845
1.40845
1.40845
1.40845
1.40845
1.40845
1.40845
1.40847
1.40835
1.4086
1.40517
1.40845
1.40845
1.40845
1.40845
1.40845
1.40845
1.40845
1.40845
1.40845
1.40845
1.40845
1.40845
1.40845
1.40845
1.40845
1.40845
1.40845
1.40845
1.40845
1.40845
1.40845
1.40845
1.40845
1.40843
1.4084
1.40845
1.40845
1.40845
1.40845
1.40845
1.40845
1.40845
1.40845
1.40845
1.40845
1.40845
1.40845
1.40845
1.40845
1.40845
1.40845
1.40845
1.40845
1.40845
1.40845
1.40845
1.40845
1.40846
1.40843
1.40845
1.40845
1.40845
1.40845
1.40845
1.40845
1.40845
1.40845
1.40845
1.40845
1.40845
1.40845
1.40845
1.40845
1.40845
1.40845
1.40845
1.40845
1.40845
1.40845
1.40845
1.40845
1.40845
1.40845
1.40845
1.40849
1.40845
1.40845
1.40845
1.40845
1.40845
1.40845
1.40845
1.40845
1.40845
1.40845
1.40845
1.40845
1.40845
1.40845
1.40845
1.40845
1.40845
1.40845
1.40845
1.40845
1.40845
1.40845
1.40845
1.40845
1.40845
1.40845
1.40845
1.40845
1.40845
1.40845
1.40845
1.40845
1.40845
1.40845
1.40845
1.40845
1.40845
1.40845
1.40845
1.40845
1.40845
1.40845
1.40845
1.40845
1.40845
1.40845
1.40845
1.40845
1.40845
1.40845
1.40845
1.40845
1.40845
1.40845
1.40845
1.40845
1.40845
1.40845
1.40845
1.40845
1.40845
1.40845
1.40845
1.40845
1.40845
1.40845
1.40845
1.40845
1.40845
1.40845
1.40845
1.40845
1.40845
1.40845
1.40845
1.40845
1.40845
1.40845
1.40845
1.40845
1.40845
1.40845
1.40845
1.40845
1.40845
1.40845
1.40845
1.40845
1.40845
1.40845
1.40845
1.40845
1.40845
1.40845
1.40845
1.40845
1.40845
1.40845
1.40845
1.40845
1.40845
1.40845
1.40845
1.40845
1.40845
1.40845
1.40845
1.40845
1.40845
1.40845
1.40845
1.40845
1.40845
1.40845
1.40845
1.40845
1.40845
1.40845
1.40845
1.40845
1.40845
1.40845
1.40845
1.40845
1.40845
1.40845
1.40845
1.40845
1.40845
1.40845
1.40845
1.40845
1.40845
1.40845
1.40845
1.40845
1.40845
1.40845
1.40845
1.40845
1.40845
1.40845
1.40845
1.40845
1.40845
1.40845
1.40845
1.40845
1.40845
1.40845
1.40845
1.40845
1.40845
1.40845
1.40845
1.40845
1.40845
1.40845
1.40845
1.40845
1.40845
1.40845
1.40845
1.40845
1.40845
1.40845
1.40845
1.40845
1.40845
1.40845
1.40845
1.40845
1.40845
1.40845
1.40845
1.40845
1.40845
1.40845
1.40845
1.40845
1.40845
1.40845
1.40845
1.40845
1.40845
1.40845
1.40845
1.40845
1.40845
1.40845
1.40845
1.40845
1.40845
1.40845
1.40845
1.40845
1.40845
1.40845
1.40845
1.40845
1.7934
1.80881
1.95298
1.68559
1.82669
1.79633
1.67124
1.44853
1.38686
1.36898
1.37706
1.38433
1.38428
1.36405
1.29708
1.24308
1.21586
1.21089
1.21641
1.21995
1.22188
1.22193
1.21858
1.2154
1.20728
1.20204
1.19757
1.19594
1.19505
1.19739
1.20362
1.22464
1.24681
1.29002
1.35803
1.4149
1.47458
1.53923
1.62599
1.69191
1.75905
1.84706
1.92468
1.99836
2.08051
2.14366
2.196
2.25114
2.29674
2.32992
2.35658
2.38951
2.41015
2.42827
2.44157
2.44976
2.4554
2.45819
2.45641
2.45169
2.44488
2.43604
2.42524
2.41301
2.39905
2.38435
2.36926
2.35364
2.33701
2.31997
2.30254
2.28481
2.26678
2.24823
2.22982
2.21131
2.19325
2.17516
2.15756
2.13994
2.12268
2.10524
2.08821
2.07111
2.05456
2.03809
2.02223
2.00653
1.99155
1.9768
1.96301
1.94952
1.93716
1.92467
1.91269
1.90047
1.88836
1.87782
1.86005
1.84501
2.74728
2.41812
2.04098
1.71291
1.85435
1.84342
1.70407
1.34585
1.21046
1.17903
1.20672
1.22194
1.21945
1.18153
1.12145
1.09372
1.07129
1.06162
1.06224
1.06485
1.06597
1.06677
1.0638
1.06246
1.05571
1.05109
1.04378
1.03989
1.03787
1.04131
1.04824
1.06848
1.08954
1.11815
1.17433
1.22102
1.27377
1.33784
1.43476
1.5235
1.60703
1.69445
1.79227
1.85887
1.94808
2.03208
2.09529
2.16985
2.24705
2.3064
2.3728
2.43284
2.482
2.51785
2.54345
2.56331
2.58091
2.59796
2.61028
2.6139
2.61535
2.615
2.61203
2.60585
2.59494
2.58174
2.56851
2.55557
2.54159
2.52554
2.50828
2.49048
2.47239
2.45415
2.43607
2.41714
2.39838
2.37923
2.36058
2.34185
2.32351
2.30494
2.28689
2.26857
2.25087
2.23286
2.21547
2.19785
2.18095
2.16408
2.14816
2.13263
2.11816
2.10386
2.08986
2.07583
2.06175
2.04904
2.02883
2.0109
3.66816
2.9562
2.46848
2.04192
1.9491
1.8782
1.66895
1.32248
1.15153
1.13948
1.15707
1.18095
1.20148
1.17973
1.12879
1.03569
0.990905
0.980284
0.97971
0.996874
0.998052
0.998945
0.993149
0.989611
0.98223
0.978707
0.974555
0.977216
0.973144
0.976113
0.977064
0.992757
1.00893
1.03774
1.09519
1.1579
1.22028
1.26827
1.33277
1.42081
1.49824
1.59427
1.71926
1.85528
2.00023
2.13737
2.26072
2.36067
2.47275
2.55494
2.63654
2.71157
2.77772
2.82523
2.85544
2.8771
2.89379
2.90842
2.9197
2.92178
2.92036
2.91621
2.90992
2.90228
2.89176
2.87663
2.85899
2.84075
2.82192
2.80261
2.78288
2.76275
2.74244
2.72061
2.69829
2.67621
2.65435
2.63217
2.61028
2.58834
2.56675
2.54555
2.52503
2.50466
2.48496
2.46479
2.44512
2.42518
2.406
2.38686
2.36874
2.35137
2.33514
2.31937
2.30371
2.28807
2.27223
2.25774
2.23408
2.21167
4.26962
3.48265
2.92313
2.42706
2.17216
2.01622
1.86162
1.60465
1.38056
1.23962
1.19625
1.19053
1.19532
1.17577
1.10941
1.00769
0.971653
0.96635
0.968591
0.982293
0.984485
1.00434
1.00702
1.00351
0.994732
0.993575
0.978234
0.977105
0.968893
0.97337
0.975837
0.994334
1.00628
1.0152
1.03929
1.08341
1.14431
1.22227
1.33761
1.48873
1.63898
1.77828
1.94156
2.09997
2.24589
2.40815
2.53899
2.64804
2.74367
2.85355
2.91062
2.97217
3.0309
3.07934
3.105
3.12853
3.14478
3.15156
3.15374
3.14963
3.1457
3.13932
3.12934
3.11679
3.10164
3.08207
3.06214
3.0422
3.02206
3.00076
2.97779
2.95373
2.92937
2.90521
2.8813
2.85767
2.83379
2.80989
2.78618
2.76232
2.73843
2.71459
2.69136
2.66881
2.64698
2.6258
2.60539
2.58506
2.565
2.545
2.52534
2.50665
2.48877
2.47164
2.45457
2.43756
2.42037
2.40373
2.37933
2.35328
4.46389
3.78511
3.27265
2.83261
2.54691
2.29342
2.10421
1.8628
1.56019
1.4049
1.33739
1.31018
1.26357
1.23623
1.19948
1.13304
1.06736
1.01974
0.995195
0.991848
0.991842
0.998006
0.997692
0.995683
0.9888
0.984649
0.971241
0.977142
0.974103
0.981015
0.981566
0.983432
0.989526
1.00673
1.05065
1.12533
1.22064
1.34389
1.49018
1.64233
1.8121
1.96794
2.14003
2.3095
2.46575
2.62204
2.74303
2.83557
2.93388
3.04724
3.09412
3.15323
3.21709
3.2398
3.26923
3.29505
3.30052
3.30264
3.30434
3.30094
3.29435
3.28622
3.2744
3.25855
3.24141
3.22209
3.20167
3.18
3.15679
3.13269
3.10841
3.08454
3.0611
3.03602
3.00934
2.98272
2.9567
2.9313
2.90639
2.88145
2.85651
2.83184
2.80782
2.78436
2.76152
2.73895
2.71699
2.69552
2.67483
2.65479
2.63522
2.61624
2.5979
2.58008
2.56219
2.54422
2.52601
2.50751
2.48274
2.45385
4.4652
3.99759
3.5337
3.16766
2.88238
2.67485
2.42418
2.18128
1.8655
1.64326
1.53596
1.48357
1.41824
1.35561
1.29046
1.20265
1.13535
1.09234
1.07336
1.06583
1.05022
1.0432
1.03024
1.02443
1.01104
1.00905
0.992799
0.992327
0.980241
0.982394
0.98495
0.992659
1.01215
1.04499
1.09961
1.18066
1.28821
1.42027
1.57114
1.72762
1.89779
2.05621
2.23511
2.41704
2.57881
2.72128
2.86446
2.94986
3.06653
3.11532
3.16629
3.24928
3.32839
3.35284
3.38027
3.38375
3.38967
3.39372
3.39642
3.39607
3.39138
3.38331
3.37338
3.35725
3.33738
3.31499
3.2914
3.26781
3.24477
3.22285
3.20157
3.17702
3.14912
3.12109
3.09354
3.06627
3.03937
3.01327
2.98818
2.96381
2.93909
2.91381
2.88866
2.86418
2.84024
2.81682
2.79404
2.77229
2.75163
2.73195
2.71228
2.69302
2.67431
2.65602
2.63769
2.6193
2.60067
2.58121
2.55597
2.52484
4.38504
4.07992
3.70906
3.38753
3.128
2.96877
2.75539
2.54081
2.29131
2.00227
1.80421
1.71037
1.63642
1.56309
1.47983
1.39876
1.29953
1.22981
1.18412
1.16252
1.14037
1.12563
1.1025
1.08403
1.06134
1.0487
1.02656
1.02683
1.01328
1.01748
1.02901
1.04479
1.06877
1.12606
1.20779
1.31927
1.44619
1.57051
1.67479
1.79742
1.90342
2.01519
2.14567
2.27805
2.42142
2.59017
2.8068
2.99676
3.15788
3.17571
3.21719
3.26406
3.33344
3.38488
3.42025
3.44312
3.44681
3.44403
3.43935
3.44234
3.44331
3.43864
3.42704
3.40242
3.38094
3.36039
3.33954
3.31784
3.29602
3.27296
3.2466
3.2203
3.19447
3.16887
3.14304
3.11655
3.08913
3.06265
3.03691
3.01117
2.9852
2.95956
2.9346
2.91042
2.88696
2.86446
2.84308
2.82216
2.8013
2.78074
2.76057
2.74115
2.72225
2.70373
2.68522
2.66657
2.64761
2.62741
2.60201
2.56968
4.3606
4.06301
3.81971
3.49789
3.27796
3.12524
2.98171
2.80935
2.5989
2.35102
2.11445
1.95457
1.87176
1.79788
1.71276
1.63373
1.5223
1.41745
1.34512
1.30838
1.27691
1.26494
1.23473
1.20699
1.16865
1.14682
1.11695
1.10909
1.09513
1.09513
1.13367
1.18546
1.24454
1.3335
1.45548
1.5316
1.6243
1.70294
1.77178
1.84933
1.91153
1.98914
2.07848
2.16473
2.26817
2.4056
2.55359
2.70111
2.9807
3.19801
3.31382
3.31364
3.3176
3.34199
3.3889
3.44423
3.46413
3.46755
3.4677
3.45628
3.44773
3.43987
3.43094
3.41646
3.39701
3.37804
3.3584
3.33736
3.31454
3.29004
3.26457
3.23969
3.21457
3.18876
3.16224
3.13597
3.1104
3.08418
3.05749
3.03131
3.00554
2.98056
2.95669
2.93403
2.91231
2.89055
2.86807
2.84598
2.82493
2.80462
2.78486
2.76571
2.74702
2.72854
2.70992
2.69106
2.67189
2.65155
2.62624
2.59339
4.37779
4.05477
3.83555
3.56324
3.412
3.22364
3.11032
2.9739
2.82061
2.62958
2.40657
2.22278
2.1146
2.03716
1.95309
1.86879
1.77829
1.66573
1.57065
1.50746
1.46829
1.43439
1.40774
1.37369
1.33739
1.29527
1.27025
1.2402
1.24397
1.26412
1.38779
1.48061
1.57743
1.69375
1.7765
1.78849
1.82531
1.84411
1.87617
1.91967
1.95899
2.00316
2.05027
2.08851
2.14665
2.22549
2.30635
2.43745
2.60678
2.77431
3.11159
3.35842
3.35348
3.34971
3.3572
3.37537
3.41183
3.43584
3.44801
3.44505
3.4357
3.43054
3.42503
3.4146
3.39624
3.37588
3.35615
3.33568
3.31254
3.28862
3.26441
3.24
3.21554
3.1918
3.16873
3.1447
3.11744
3.09009
3.06367
3.03832
3.01385
2.99059
2.96766
2.94463
2.92182
2.89895
2.87635
2.85473
2.8341
2.81416
2.79485
2.77619
2.75793
2.73963
2.72084
2.7018
2.68241
2.66186
2.63636
2.60295
4.42907
4.11015
3.85129
3.60167
3.47904
3.2893
3.18609
3.06744
2.92915
2.78462
2.59481
2.40943
2.2801
2.20289
2.13354
2.06885
1.99283
1.90679
1.80434
1.71849
1.66535
1.6303
1.60321
1.56664
1.53715
1.49291
1.47312
1.44692
1.49746
1.56841
1.84229
1.95239
2.04562
2.10885
2.06989
2.03998
2.0166
2.00624
2.01187
2.01196
2.02498
2.04539
2.0634
2.07416
2.10005
2.12366
2.15521
2.22728
2.31863
2.44967
2.6233
2.92135
3.24008
3.38689
3.37663
3.35347
3.36287
3.37505
3.41136
3.42708
3.4289
3.41809
3.40055
3.39448
3.38743
3.37538
3.3582
3.3382
3.31259
3.2867
3.2638
3.24198
3.22084
3.19862
3.17161
3.14536
3.11988
3.09483
3.06996
3.04489
3.02047
2.99634
2.97274
2.95
2.92774
2.90568
2.88405
2.86322
2.84308
2.82332
2.80384
2.78451
2.76522
2.746
2.7267
2.70729
2.68767
2.66701
2.64161
2.60775
4.47983
4.18
3.90492
3.66177
3.50598
3.33619
3.23949
3.13583
3.01556
2.88236
2.74327
2.55993
2.40801
2.32128
2.25706
2.19469
2.14071
2.08033
1.99555
1.91223
1.84145
1.79119
1.76444
1.73801
1.71266
1.69019
1.67939
1.69977
1.76197
2.16487
2.37826
2.45821
2.50129
2.47727
2.40282
2.33062
2.26848
2.23618
2.20843
2.17585
2.14376
2.1166
2.09285
2.08699
2.0928
2.09153
2.09893
2.11952
2.14814
2.20889
2.3212
2.48375
2.64819
3.08101
3.37955
3.40129
3.38853
3.363
3.36605
3.37824
3.38785
3.40186
3.40166
3.39326
3.38913
3.38034
3.35961
3.33944
3.31869
3.29684
3.27466
3.25149
3.22775
3.20345
3.17868
3.15416
3.12938
3.10474
3.08008
3.05563
3.03087
3.00505
2.98091
2.95837
2.93656
2.91532
2.8946
2.87439
2.85455
2.8348
2.81493
2.7948
2.77444
2.75429
2.73437
2.71454
2.69461
2.67362
2.64767
2.61276
4.53533
4.25903
3.98754
3.73601
3.54247
3.38322
3.28011
3.17948
3.07021
2.9495
2.82205
2.68465
2.53322
2.4174
2.33071
2.28811
2.24613
2.18473
2.1232
2.04999
1.97926
1.91779
1.88244
1.86321
1.84757
1.84615
1.86928
1.99006
2.17622
2.82139
2.88723
2.91701
2.90048
2.7964
2.6949
2.60482
2.53611
2.47581
2.41124
2.35999
2.31683
2.26268
2.20594
2.15656
2.12619
2.09975
2.08592
2.08902
2.08842
2.10857
2.14789
2.20859
2.34431
2.54258
2.77485
3.20761
3.42339
3.44802
3.3725
3.35572
3.36101
3.38191
3.40145
3.40119
3.39559
3.38747
3.37313
3.35328
3.33417
3.31458
3.29337
3.26713
3.24191
3.21822
3.19468
3.17125
3.14742
3.12376
3.10035
3.0773
3.05068
3.02366
2.99911
2.97651
2.95492
2.93417
2.91387
2.89372
2.87345
2.85297
2.83226
2.81135
2.79012
2.76899
2.74806
2.72718
2.70619
2.68411
2.65681
2.62029
4.58599
4.32468
4.06644
3.81172
3.59918
3.43769
3.316
3.21529
3.11138
3.00186
2.88427
2.75611
2.64105
2.50591
2.40958
2.35499
2.30231
2.25925
2.21535
2.1473
2.08506
2.01403
1.9591
1.94788
1.94774
1.97035
2.0612
2.21676
2.79915
3.22971
3.27211
3.24869
3.17472
3.04884
2.93635
2.84392
2.74685
2.66214
2.5842
2.51997
2.44056
2.37122
2.31684
2.267
2.22711
2.16279
2.12346
2.10931
2.07996
2.08256
2.08406
2.10321
2.16388
2.24471
2.40259
2.59284
3.01725
3.38489
3.45428
3.43459
3.37085
3.35929
3.36364
3.39345
3.39803
3.39141
3.37687
3.35983
3.34312
3.32665
3.30781
3.28524
3.25484
3.22958
3.2084
3.18831
3.16772
3.1455
3.12167
3.0971
3.06919
3.0431
3.01974
2.99794
2.97683
2.95632
2.93596
2.91555
2.8949
2.87389
2.85246
2.83043
2.80779
2.78563
2.7639
2.74231
2.72064
2.69793
2.66986
2.63168
4.633
4.39411
4.14652
3.89763
3.67653
3.50118
3.36988
3.26054
3.15475
3.04468
2.93473
2.81595
2.70813
2.6001
2.48202
2.39997
2.35683
2.31802
2.26519
2.2121
2.16852
2.08573
2.03231
2.02099
2.03297
2.10483
2.34538
2.75283
3.39209
3.48165
3.4832
3.42999
3.34893
3.24385
3.14275
3.03213
2.92486
2.82757
2.73642
2.64926
2.57113
2.50461
2.44433
2.37409
2.30993
2.26633
2.2321
2.19628
2.13151
2.09345
2.07916
2.09327
2.10047
2.11431
2.1832
2.308
2.48559
2.68136
3.16159
3.46209
3.4615
3.40025
3.35088
3.34924
3.36859
3.37499
3.37237
3.36566
3.35222
3.32715
3.30483
3.28422
3.2628
3.24091
3.21894
3.19697
3.17658
3.15624
3.13547
3.11515
3.08887
3.06196
3.03836
3.01637
2.99498
2.97443
2.95455
2.93504
2.91533
2.89492
2.87387
2.85104
2.82793
2.8054
2.78316
2.76102
2.73867
2.7152
2.68629
2.64623
4.66728
4.44091
4.2145
3.96786
3.75512
3.57469
3.43365
3.3159
3.20711
3.09497
2.98377
2.8786
2.75785
2.66773
2.55105
2.46159
2.39984
2.35189
2.30984
2.26566
2.20991
2.1349
2.0907
2.09021
2.1423
2.34134
2.63521
3.30314
3.62005
3.62845
3.59119
3.53805
3.46998
3.38839
3.29389
3.18322
3.07576
2.96976
2.87336
2.78234
2.70027
2.62633
2.55552
2.48462
2.42649
2.38176
2.3361
2.27792
2.23757
2.18481
2.14738
2.12159
2.08611
2.0931
2.10889
2.13018
2.20295
2.34563
2.55557
2.84865
3.27581
3.44749
3.46089
3.35753
3.31323
3.31886
3.33944
3.34052
3.33047
3.31398
3.29796
3.27358
3.25251
3.23133
3.21172
3.19187
3.17195
3.15049
3.12931
3.1088
3.08567
3.06184
3.04053
3.02047
3.00068
2.98119
2.96187
2.94243
2.92246
2.90164
2.88006
2.85641
2.83314
2.81044
2.78788
2.76541
2.74265
2.71878
2.68982
2.64867
4.69992
4.49093
4.27431
4.03988
3.81587
3.64774
3.50445
3.37974
3.27046
3.16211
3.0512
2.94497
2.83661
2.72482
2.60991
2.52321
2.43786
2.39239
2.34793
2.29645
2.23116
2.18521
2.1753
2.20235
2.35662
2.58748
3.27784
3.69044
3.69502
3.68239
3.65468
3.61308
3.55513
3.48347
3.3978
3.30302
3.20318
3.10051
3.00317
2.90951
2.82327
2.74969
2.67275
2.60317
2.54865
2.48173
2.42076
2.37782
2.33394
2.29291
2.25626
2.20135
2.14384
2.11576
2.08587
2.08608
2.09634
2.13466
2.22061
2.39772
2.58321
3.07269
3.4189
3.44075
3.39708
3.31902
3.28424
3.29396
3.29803
3.29597
3.2857
3.26883
3.24048
3.21965
3.20512
3.19052
3.17378
3.15427
3.1337
3.11003
3.08693
3.06574
3.04549
3.02545
3.00535
2.98534
2.96546
2.94552
2.92503
2.90365
2.88129
2.85624
2.83193
2.8086
2.78577
2.76321
2.74042
2.71644
2.68749
2.64485
4.70716
4.53577
4.32469
4.11308
3.88845
3.70297
3.57856
3.44884
3.33285
3.22762
3.12079
3.0105
2.9058
2.79065
2.66759
2.5718
2.48724
2.43039
2.37376
2.31349
2.26338
2.25229
2.27763
2.40248
2.59944
3.27439
3.72551
3.73131
3.72696
3.71378
3.69132
3.65754
3.61167
3.55121
3.48001
3.39831
3.30952
3.21715
3.12345
3.03333
2.95189
2.86953
2.7892
2.7262
2.65835
2.5834
2.53581
2.4826
2.43082
2.37606
2.31231
2.2606
2.22088
2.18379
2.13695
2.10744
2.06057
2.06289
2.08931
2.15128
2.28053
2.46778
2.67832
3.14715
3.41485
3.41986
3.34117
3.26259
3.25504
3.26059
3.26172
3.25672
3.24225
3.21886
3.19504
3.18142
3.16869
3.15434
3.13708
3.11803
3.09222
3.06897
3.04838
3.02813
3.00794
2.9879
2.96796
2.94779
2.92678
2.90459
2.88112
2.85608
2.83146
2.80745
2.7841
2.76106
2.73778
2.71334
2.68423
2.64043
4.71743
4.57366
4.37861
4.17707
3.96596
3.76239
3.63174
3.51626
3.39481
3.28732
3.1879
3.08744
2.98279
2.86387
2.73867
2.62189
2.54449
2.48851
2.39058
2.34428
2.32914
2.34336
2.4464
2.64346
3.28287
3.74921
3.76536
3.76286
3.75117
3.73449
3.71683
3.69357
3.66002
3.61338
3.55319
3.48345
3.40567
3.32508
3.23837
3.15414
3.06886
2.98257
2.90757
2.84141
2.75519
2.69861
2.63745
2.56492
2.50482
2.43998
2.38394
2.33634
2.28832
2.23635
2.19676
2.14175
2.09424
2.05819
2.06383
2.06606
2.08699
2.16386
2.31151
2.50532
2.89289
3.2952
3.3951
3.39197
3.27991
3.22101
3.2159
3.22358
3.2231
3.21232
3.19453
3.17517
3.16153
3.14829
3.13391
3.1172
3.09831
3.07319
3.05001
3.02957
3.00939
2.98905
2.96856
2.94758
2.92574
2.90315
2.87968
2.8544
2.82932
2.80462
2.7809
2.75773
2.73438
2.70986
2.68089
2.63554
4.69372
4.60541
4.45186
4.2516
4.05435
3.83961
3.67965
3.57841
3.45481
3.33758
3.24017
3.14643
3.05398
2.94907
2.81746
2.69458
2.61716
2.50851
2.43811
2.40403
2.41478
2.49807
2.72494
3.25736
3.83981
3.85535
3.85541
3.82502
3.79109
3.77246
3.75592
3.73727
3.71032
3.67377
3.62409
3.56405
3.49472
3.41914
3.33648
3.25629
3.17186
3.09434
3.01682
2.92499
2.85702
2.789
2.70798
2.63849
2.57526
2.51616
2.46
2.39598
2.34084
2.29755
2.25287
2.2106
2.18014
2.12627
2.08625
2.0468
2.0345
2.04082
2.08553
2.18922
2.37868
2.57977
3.07514
3.37387
3.3767
3.33439
3.23514
3.18217
3.18784
3.18624
3.18271
3.17805
3.16934
3.15747
3.13817
3.11657
3.09561
3.07424
3.05098
3.02939
3.00818
2.98704
2.96638
2.946
2.92464
2.90217
2.87868
2.8531
2.82618
2.80081
2.77665
2.75321
2.72959
2.70493
2.67614
2.62984
4.70412
4.60497
4.478
4.30357
4.14209
3.93825
3.7393
3.63033
3.51722
3.38635
3.29008
3.20198
3.11163
3.00999
2.88782
2.77906
2.67882
2.56023
2.51332
2.50455
2.56248
2.80225
3.23316
3.92197
3.97913
3.9754
3.94034
3.88133
3.84849
3.82747
3.80718
3.78604
3.76113
3.72948
3.68935
3.63735
3.57532
3.50373
3.42776
3.34679
3.26535
3.18516
3.09244
3.01019
2.93952
2.85323
2.78177
2.71695
2.64585
2.58015
2.51304
2.45618
2.40229
2.35379
2.31117
2.27727
2.23882
2.19438
2.14554
2.08354
2.04447
2.00741
2.01379
2.04314
2.11305
2.23967
2.44397
2.72252
3.16176
3.34556
3.35687
3.24278
3.16616
3.15262
3.14991
3.15852
3.1612
3.15507
3.14058
3.12017
3.09614
3.07189
3.04889
3.02785
3.00676
2.98485
2.96269
2.94167
2.92099
2.89968
2.87724
2.85337
2.82591
2.7987
2.77287
2.74882
2.72489
2.69971
2.67058
2.6233
4.60035
4.62978
4.51365
4.35117
4.18627
4.02929
3.81355
3.66666
3.57449
3.43989
3.31416
3.23911
3.16416
3.07482
2.94815
2.82773
2.72082
2.64101
2.62617
2.66533
2.86995
3.20769
3.95102
4.14499
4.15289
4.06475
3.98698
3.94579
3.91079
3.88
3.85281
3.82741
3.80196
3.77305
3.73781
3.69308
3.63955
3.57576
3.50547
3.42753
3.34975
3.25692
3.17868
3.10351
3.01508
2.93812
2.86698
2.79946
2.72587
2.65983
2.59354
2.538
2.48445
2.43265
2.38646
2.34127
2.29416
2.24886
2.19603
2.1462
2.09776
2.04328
2.00074
2.00153
2.00839
2.04154
2.12428
2.28554
2.46453
2.95402
3.2909
3.29866
3.26866
3.17919
3.129
3.12596
3.13203
3.13494
3.13108
3.11695
3.09753
3.06467
3.03831
3.01938
3.00074
2.98054
2.95946
2.93874
2.91767
2.89583
2.87347
2.85066
2.82466
2.79482
2.76698
2.7416
2.71739
2.69199
2.66242
2.61414
4.51232
4.5874
4.52573
4.38928
4.22858
4.09195
3.8969
3.70991
3.61456
3.49178
3.35777
3.26982
3.19396
3.12071
3.01286
2.86701
2.77527
2.75108
2.77919
2.9599
3.24382
4.0194
4.30207
4.31246
4.21563
4.12815
4.07903
4.0351
3.98699
3.94359
3.90657
3.87319
3.84099
3.80838
3.77285
3.7319
3.68361
3.62737
3.5627
3.49265
3.41731
3.33914
3.26011
3.17583
3.09636
3.01889
2.94409
2.86857
2.79859
2.72493
2.65961
2.59417
2.53837
2.48946
2.43873
2.38815
2.34218
2.29528
2.24714
2.18652
2.13308
2.08988
2.05284
2.01997
1.98551
1.99184
2.01344
2.07003
2.1856
2.37125
2.5846
3.04188
3.2844
3.2798
3.23146
3.1592
3.11276
3.108
3.10676
3.103
3.09137
3.07672
3.04611
3.01803
2.99816
2.97822
2.95568
2.93705
2.91947
2.89941
2.87664
2.85218
2.8207
2.78881
2.76052
2.73355
2.70879
2.68356
2.654
2.6047
3.9289
4.47507
4.55352
4.44429
4.28665
4.13744
3.9768
3.7679
3.63615
3.54098
3.417
3.30586
3.23451
3.1787
3.04898
2.93892
2.88035
2.89923
3.05197
3.30993
4.11205
4.47696
4.49089
4.3624
4.26673
4.21119
4.15887
4.10544
4.04673
3.99216
3.9456
3.90418
3.86743
3.83202
3.79631
3.75785
3.71428
3.66414
3.60701
3.5436
3.47437
3.40069
3.32259
3.24514
3.16727
3.08879
3.01129
2.93424
2.85965
2.7837
2.71648
2.65331
2.59298
2.53877
2.48715
2.43777
2.38813
2.33803
2.28766
2.23371
2.18561
2.14263
2.10509
2.07476
2.02475
1.99971
1.99691
2.00491
2.03647
2.10334
2.23524
2.44631
2.76229
3.1348
3.24894
3.24883
3.18312
3.11513
3.07754
3.07659
3.07929
3.07259
3.05797
3.02978
3.00009
2.97657
2.95635
2.93784
2.92083
2.90015
2.87559
2.84965
2.81892
2.78424
2.7544
2.7266
2.70097
2.67584
2.64623
2.59563
2.9352
4.28162
4.39942
4.38055
4.27556
4.13306
4.02143
3.83746
3.66412
3.58447
3.47892
3.35502
3.27669
3.21038
3.10058
3.03417
3.03677
3.16566
3.38679
4.19255
4.6611
4.67966
4.52603
4.4092
4.34472
4.28544
4.22631
4.16896
4.11038
4.05099
3.99609
3.9473
3.90351
3.86318
3.8232
3.7823
3.73869
3.69113
3.63871
3.58103
3.51855
3.45122
3.38072
3.30742
3.23172
3.15547
3.07902
3.00326
2.927
2.85309
2.78158
2.71728
2.65541
2.59768
2.54341
2.49187
2.44041
2.38915
2.33215
2.28174
2.23613
2.18742
2.14409
2.11067
2.08393
2.04217
2.00745
1.99324
1.99852
2.00474
2.04118
2.13709
2.30912
2.48014
2.92814
3.20394
3.21805
3.19463
3.13613
3.08217
3.05197
3.04876
3.03904
3.02221
3.00096
2.97338
2.95105
2.93193
2.91337
2.8943
2.87178
2.84676
2.81938
2.78053
2.74789
2.71968
2.69259
2.66691
2.63701
2.58571
1.90755
3.40767
4.3562
4.38151
4.29828
4.15672
4.04949
3.91446
3.72211
3.62808
3.55021
3.4144
3.32336
3.23226
3.1959
3.18903
3.30576
3.53684
4.29387
4.84748
4.86737
4.69525