/*--------------------------------*- C++ -*----------------------------------*\
| =========                 |                                                 |
| \\      /  F ield         | OpenFOAM: The Open Source CFD Toolbox           |
|  \\    /   O peration     | Version:  v2106                                 |
|   \\  /    A nd           | Website:  www.openfoam.com                      |
|    \\/     M anipulation  |                                                 |
\*---------------------------------------------------------------------------*/
FoamFile
{
    version     2.0;
    format      ascii;
    arch        "LSB;label=32;scalar=64";
    class       volScalarField;
    location    "16";
    object      T;
}
// * * * * * * * * * * * * * * * * * * * * * * * * * * * * * * * * * * * * * //

dimensions      [0 0 0 1 0 0 0];

internalField   nonuniform List<scalar> 
5250
(
1
1
1
1
1
1
1
1
1.00001
1.00012
1.00106
1.00937
1.07454
1.38372
2.29808
2.78969
2.44367
2.41095
2.46376
2.47118
2.48707
2.50804
2.52766
2.54106
2.54859
1
1
1
1
1
1
1
1
1.00001
1.00011
1.00101
1.00894
1.0717
1.37394
2.25085
2.78688
2.41918
2.39052
2.44619
2.45711
2.47655
2.501
2.5222
2.53708
2.545
1
1
1
1
1
1
1
1
1.00001
1.0001
1.00091
1.00806
1.06568
1.35226
2.13866
2.79531
2.379
2.353
2.41107
2.42859
2.45405
2.48406
2.50985
2.52632
2.53478
1
1
1
1
1
1
1
1
1.00001
1.00009
1.00079
1.00692
1.05758
1.32235
2.02769
2.83866
2.32976
2.30469
2.36512
2.3906
2.42427
2.46143
2.49409
2.51344
2.52347
1
1
1
1
1
1
1
1
1.00001
1.00008
1.00068
1.00585
1.0495
1.29038
1.9602
2.96609
2.3085
2.24553
2.29484
2.33061
2.37949
2.43111
2.4721
2.49647
2.50862
1
1
1
1
1
1
1
1
1.00001
1.00006
1.00054
1.00466
1.04127
1.25524
1.88679
3.04827
2.37848
2.26015
2.29473
2.29286
2.32622
2.38534
2.44349
2.47655
2.48863
1
1
1
1
1
1
1
1
1
1.00004
1.0004
1.00361
1.03327
1.21775
1.80302
3.1419
2.50172
2.31195
2.31618
2.28904
2.29656
2.32934
2.39773
2.44778
2.46371
1
1
1
1
1
1
1
1
1
1.00004
1.00033
1.00301
1.02745
1.18818
1.71978
3.12558
2.5732
2.38868
2.36192
2.30586
2.28677
2.29818
2.34688
2.41297
2.41886
1
1
1
1
1
1
1
1
1
1.00003
1.00026
1.00232
1.02138
1.15491
1.63356
3.03407
2.56392
2.47285
2.42523
2.34909
2.28244
2.27277
2.2856
2.35832
2.34824
1
1
1
1
1
1
1
1
1
1.00002
1.00021
1.00187
1.01722
1.12896
1.54431
2.87482
2.51159
2.49381
2.46864
2.4113
2.31995
2.25066
2.24224
2.29047
2.19432
1
1
1
1
1
1
1
1
1
1.00002
1.00015
1.00136
1.01234
1.0944
1.45381
2.71065
2.55346
2.43884
2.43685
2.41838
2.36107
2.26634
2.16539
2.12114
1.92192
1
1
1
1
1
1
1
1
1
1.00001
1.00008
1.0008
1.00731
1.06224
1.36582
2.4776
2.61496
2.37375
2.3787
2.39565
2.37212
2.29754
2.17605
2.09826
1.77906
1
1
1
1
1
1
1
1
1
1.00001
1.00007
1.00058
1.00496
1.04296
1.26356
1.93503
2.73508
2.26582
2.2969
2.35173
2.34992
2.30055
2.19201
2.08934
1.7841
1
1
1
1
1
1
1
1
1
1
1.00004
1.00033
1.00299
1.02821
1.19355
1.73878
2.89439
2.27964
2.24556
2.29457
2.31558
2.28199
2.1976
2.09148
1.82466
1
1
1
1
1
1
1
1
1
1
1.00002
1.00023
1.00204
1.01863
1.13758
1.57692
2.88412
2.31213
2.24362
2.23803
2.26133
2.24614
2.19117
2.10107
1.89907
1
1
1
1
1
1
1
1
1
1
1.00002
1.00015
1.00129
1.01145
1.08676
1.43217
2.73473
2.47164
2.20578
2.14936
2.17145
2.19484
2.17103
2.10147
1.9649
1
1
1
1
1
1
1
1
1
1
1.00001
1.00006
1.00056
1.00504
1.04427
1.29014
2.25506
2.67178
2.2419
2.14939
2.15214
2.15765
2.14091
2.0917
1.99557
1
1
1
1
1
1
1
1
1
1
1
1.00004
1.00035
1.00306
1.02704
1.18632
1.72127
2.82724
2.25458
2.19858
2.12871
2.12239
2.10489
2.06833
1.99582
1
1
1
1
1
1
1
1
1
1
1
1.00002
1.0002
1.00171
1.01486
1.10905
1.50607
2.76987
2.36103
2.19291
2.09742
2.0775
2.05922
2.03199
1.98254
1
1
1
1
1
1
1
1
1
1
1
1.00001
1.00008
1.00076
1.00662
1.05743
1.34651
2.48675
2.51912
2.18976
2.06837
2.05943
2.04338
2.01465
1.96865
1
1
1
1
1
1
1
1
1
1
1
1.00001
1.00005
1.00039
1.00327
1.0268
1.17416
1.76247
2.74919
2.21688
2.13271
2.04811
2.02476
1.99712
1.9567
1
1
1
1
1
1
1
1
1
1
1
1
1.00006
1.00006
1.00123
1.00958
1.08008
1.50423
2.63871
2.38393
2.12616
2.0284
1.999
1.97243
1.93966
1
1
1
1
1
1
1
1
1
1
1
1
1.00001
1.00008
1.00062
1.00508
1.04025
1.24183
2.12024
2.62967
2.14561
2.0801
2.00256
1.96347
1.92614
1
1
1
1
1
1
1
1
1
1
1
1
1.00001
1.00008
1.00007
1.00147
1.01216
1.10202
1.63033
2.64832
2.26514
2.0804
1.99034
1.95678
1.92142
1
1
1
1
1
1
1
1
1
1
1
1
1
1.00001
1.0001
1.00083
1.00665
1.05192
1.2983
2.44894
2.46557
2.09243
2.01335
1.95775
1.91863
1
1
1
1
1
1
1
1
1
1
1
1
1
1.00001
1.00007
1.0001
1.00178
1.01442
1.11399
1.75135
2.68662
2.21526
2.05192
1.95691
1.92024
1
1
1
1
1
1
1
1
1
1
1
1
1
1
1.00001
1.00012
1.00097
1.00748
1.05697
1.31814
2.47208
2.41256
2.0609
1.98261
1.93205
1
1
1
1
1
1
1
1
1
1
1
1
1
1
1.00001
1.00009
1.00006
1.00181
1.01379
1.10547
1.75384
2.65613
2.19446
2.02376
1.9353
1
1
1
1
1
1
1
1
1
1
1
1
1
1
1
1.00002
1.00012
1.00095
1.00713
1.05488
1.31945
2.43924
2.39443
2.04374
1.98207
1
1
1
1
1
1
1
1
1
1
1
1
1
1
1
1
1.00004
0.999925
1.00137
1.01306
1.10334
1.70264
2.60112
2.20247
2.00356
1
1
1
1
1
1
1
1
1
1
1
1
1
1
1
1
1.00001
1.00009
1.00077
1.006
1.04734
1.29008
2.31
2.41723
2.0546
1
1
1
1
1
1
1
1
1
1
1
1
1
1
1
1
0.999999
0.999999
0.999861
1.00089
1.01123
1.09487
1.58821
2.52366
2.2657
1
1
1
1
1
1
1
1
1
1
1
1
1
1
1
1
1
1.00001
1.00008
1.0007
1.00533
1.04145
1.26718
2.20096
2.4735
1
1
1
1
1
1
1
1
1
1
1
1
1
1
1
1
1
1
1.00001
1.0001
1.00105
1.00858
1.07134
1.3749
2.29347
1
1
1
1
1
1
1
1
1
1
1
1
1
1
1
1
1
1
1.00001
1.00005
1.00044
1.00454
1.00258
1.07323
1.71736
1
1
1
1
1
1
1
1
1
1
1
1
1
1
1
1
1
1
1
1.00001
1.00009
1.00074
1.0056
1.04324
1.28312
1
1
1
1
1
1
1
1
1
1
1
1
1
1
1
1
1
1
1
1
1.00003
1.00019
1.00128
1.00777
1.07418
1
1
1
1
1
1
1
1
1
1
1
1
1
1
1
1
1
1
1
1
1.00001
1.00005
1.00038
1.00272
1.0175
1
1
1
1
1
1
1
1
1
1
1
1
1
1
1
1
1
1
1
1
1
1
1.00007
1.0006
1.0043
1
1
1
1
1
1
1
1
1
1
1
1
1
1
1
1
1
1
1
1
1
1
1.00003
1.00022
1.00145
1
1
1
1
1
1
1
1
1
1
1
1
1
1
1
1
1
1
1
1
1
1
1.00001
1.00005
1.00038
1
1
1
1
1
1
1
1
1
1
1
1
1
1
1
1
1
1
1
1
1
1
1
1.00002
1.00006
1
1
1
1
1
1
1
1
1
1
1
1
1
1
1
1
1
1
1
1
1
1
1
1
1.00003
1
1
1
1
1
1
1
1
1
1
1
1
1
1
1
1
1
1
1
1
1
1
1
1
1
1
1
1
1
1
1
1
1
1
1
1
1
1
1
1
1
1
1
1
1
1
1
1
1
1
1
1
1
1
1
1
1
1
1
1
1
1
1
1
1
1
1
1
1
1
1
1
1
1
1
1
1
1
1
1
1
1
1
1
1
1
1
1
1
1
1
1
1
1
1
1
1
1
1
1
1
1
1
1
1
1
1
1
1
1
1
1
1
1
1
1
1
1
1
1
1
1
1
1
1
1
1
1
1
1
1
1
1
1
1
1
1
1
1
1
1
1
1
1
1
1
1
1
1
1
1
1
1
1
1
1
1
1
1
1
1
1
1
1
1
1
1
1
1
1
1
1
1
1
1
2.1294
2.39474
2.80465
2.75982
2.7343
2.79117
2.83583
2.84682
2.6395
2.56265
2.55199
2.55773
2.56276
2.5766
2.59534
2.52546
2.46295
2.434
2.42912
2.43122
2.43756
2.44035
2.44192
2.44142
2.44278
2.43616
2.42857
2.42497
2.4218
2.42014
2.41794
2.41246
2.41874
2.42066
2.43138
2.47871
2.51642
2.55049
2.59537
2.63915
2.67381
2.69985
2.7427
2.77568
2.80723
2.83111
2.83996
2.84633
2.85608
2.85867
2.87119
2.86053
2.84944
2.8371
2.82447
2.81021
2.79568
2.78009
2.76514
2.75092
2.73683
2.72272
2.70921
2.69549
2.68255
2.66951
2.65683
2.64436
2.63278
2.62128
2.6098
2.59828
2.58676
2.57569
2.56456
2.554
2.54347
2.53341
2.52327
2.51349
2.50365
2.49443
2.48522
2.47662
2.46799
2.45985
2.45166
2.44398
2.43626
2.42919
2.42202
2.41536
2.40834
2.40146
2.39437
2.38701
2.3795
2.36818
2.36597
2.37068
2.12063
2.3356
2.48925
2.69822
2.78454
2.83277
2.95294
3.11746
2.90591
2.82912
2.82006
2.87585
2.89128
2.91585
2.92589
2.84767
2.80847
2.788
2.79116
2.79374
2.7988
2.80233
2.80324
2.80239
2.80512
2.79991
2.79356
2.78857
2.78247
2.7806
2.77902
2.77272
2.78083
2.78711
2.78623
2.82995
2.86267
2.88806
2.912
2.93584
2.94873
2.95272
2.95406
2.984
2.98582
2.96752
2.95054
2.93378
2.90507
2.87834
2.84311
2.80193
2.76219
2.73182
2.70737
2.68221
2.6554
2.62611
2.59734
2.57537
2.5545
2.53307
2.51254
2.49324
2.47723
2.46277
2.44834
2.43341
2.41919
2.40635
2.39423
2.38217
2.37012
2.3582
2.34616
2.3353
2.32479
2.31507
2.30531
2.29593
2.28647
2.27756
2.26859
2.26037
2.25209
2.24467
2.23723
2.23067
2.22413
2.21843
2.21276
2.2076
2.20225
2.19682
2.19122
2.18538
2.17908
2.16978
2.16722
2.17229
1.9012
2.07199
2.2415
2.48516
2.62359
2.68818
2.72784
2.86088
3.00499
3.01887
3.04201
3.0219
2.96726
2.99779
3.05601
3.11034
3.00788
2.96633
2.96089
2.95761
2.97791
2.98738
2.99225
2.99039
2.98961
2.98313
2.97238
2.97236
2.97335
2.97181
2.97526
2.96639
2.97478
2.97909
2.97931
3.00543
3.04199
3.04735
3.12421
3.11163
3.08643
3.06997
3.02121
2.95897
2.88964
2.81253
2.73088
2.6755
2.61939
2.57696
2.53492
2.49361
2.45063
2.41868
2.39567
2.37588
2.35532
2.3352
2.31314
2.29608
2.28026
2.26438
2.24875
2.23257
2.21758
2.2054
2.19497
2.18484
2.17493
2.16503
2.15506
2.14499
2.13456
2.12501
2.11596
2.10718
2.09871
2.09087
2.08314
2.07566
2.06817
2.06075
2.05319
2.04602
2.03878
2.0324
2.02615
2.0207
2.01529
2.01061
2.00605
2.00172
1.99721
1.99252
1.98764
1.98254
1.97697
1.96858
1.9662
1.97201
1.76573
1.82458
1.9324
2.12413
2.33192
2.49058
2.49771
2.54494
2.67084
2.81499
2.89196
2.95814
2.95373
2.92968
2.92373
3.00076
3.03851
3.04187
3.04966
3.04254
3.03387
2.98683
2.96612
2.97369
2.97692
2.97699
2.97378
2.97101
2.96486
2.961
2.9656
2.96146
2.99547
3.02356
3.09299
3.12467
3.11444
3.09577
3.03506
2.93929
2.81912
2.72625
2.63546
2.55803
2.50453
2.43982
2.38432
2.34284
2.32112
2.28478
2.26618
2.24831
2.22662
2.20533
2.18739
2.17157
2.15458
2.14217
2.12876
2.11892
2.10868
2.09665
2.08449
2.0725
2.06092
2.05197
2.04342
2.03489
2.02628
2.01795
2.01006
2.00245
1.99484
1.98707
1.97908
1.97096
1.96341
1.95635
1.94949
1.94292
1.93661
1.93058
1.92459
1.9186
1.91255
1.9065
1.90039
1.89478
1.88956
1.88497
1.88101
1.87721
1.87338
1.86938
1.86514
1.86061
1.85551
1.84822
1.84433
1.85017
1.74901
1.75728
1.79762
1.89773
2.02823
2.20192
2.26106
2.22607
2.3226
2.45887
2.59471
2.70467
2.79752
2.80316
2.79528
2.80653
2.84861
2.89839
2.9405
2.97904
2.99676
2.99151
2.97973
2.97355
2.96643
2.96161
2.96791
2.96659
2.96256
2.95544
2.95058
2.97017
2.9942
3.03007
3.02458
2.98572
2.89804
2.77728
2.6277
2.54465
2.44242
2.38831
2.32937
2.27123
2.22633
2.17936
2.14935
2.13572
2.12473
2.09969
2.0952
2.08994
2.07468
2.06448
2.0508
2.03943
2.03174
2.02552
2.0171
2.00759
2.00035
1.99164
1.98173
1.97285
1.96371
1.95554
1.94796
1.94075
1.93382
1.927
1.92001
1.91265
1.90472
1.89745
1.89103
1.88474
1.87842
1.87207
1.86568
1.85952
1.85364
1.84798
1.84237
1.83685
1.83131
1.82601
1.82076
1.81572
1.81074
1.80595
1.80164
1.7977
1.79385
1.78993
1.7859
1.78167
1.77692
1.77055
1.76565
1.77152
1.79234
1.73615
1.74208
1.77627
1.84327
1.92463
2.01072
1.99903
2.07609
2.19177
2.30592
2.39773
2.49971
2.55502
2.56341
2.58818
2.63488
2.69403
2.74299
2.79448
2.84405
2.87319
2.89672
2.90915
2.92172
2.9236
2.93038
2.93143
2.93435
2.94117
2.94667
2.96178
2.94901
2.90913
2.82998
2.71911
2.56572
2.43126
2.29898
2.22663
2.14855
2.12613
2.09534
2.05941
2.03426
2.02494
2.00864
2.00495
1.98141
1.97886
1.99363
1.99158
1.9779
1.96832
1.95894
1.95505
1.95193
1.9489
1.94525
1.9393
1.93186
1.92337
1.91337
1.90579
1.89936
1.89346
1.8877
1.88175
1.87513
1.86766
1.85942
1.85238
1.84679
1.84131
1.83562
1.82969
1.8236
1.81735
1.8109
1.80438
1.7984
1.79312
1.78819
1.78329
1.77844
1.77363
1.76884
1.76397
1.75897
1.75395
1.74957
1.74553
1.74159
1.73759
1.73353
1.72929
1.72458
1.71857
1.71315
1.71915
1.86355
1.76107
1.72863
1.7298
1.75647
1.78506
1.82045
1.81398
1.82885
1.89335
1.98879
2.07126
2.15546
2.22796
2.29442
2.31697
2.36642
2.42637
2.4897
2.54335
2.60353
2.64963
2.69675
2.73304
2.77208
2.79438
2.82673
2.84076
2.86098
2.8925
2.8905
2.87545
2.83515
2.73497
2.55814
2.35825
2.19647
2.06899
2.00396
1.93693
1.90915
1.90918
1.90276
1.90729
1.92348
1.9493
1.93966
1.92722
1.89832
1.9003
1.90678
1.91528
1.915
1.91255
1.91007
1.90543
1.89875
1.89757
1.89649
1.89432
1.88897
1.8804
1.87063
1.86694
1.86303
1.85843
1.85256
1.84582
1.83838
1.83113
1.82555
1.82003
1.81433
1.80834
1.80203
1.79561
1.78971
1.78371
1.77776
1.77219
1.76707
1.76215
1.75725
1.7523
1.74723
1.74197
1.73647
1.73126
1.72655
1.72212
1.71797
1.71384
1.70971
1.70551
1.70126
1.69687
1.69211
1.68635
1.68055
1.68645
1.90569
1.81597
1.73858
1.73004
1.73376
1.7338
1.73705
1.71544
1.70331
1.72291
1.7766
1.84963
1.91174
1.97039
2.02784
2.03623
2.06117
2.11542
2.18573
2.2459
2.32341
2.37108
2.42767
2.47322
2.52847
2.57102
2.62491
2.66426
2.70982
2.76324
2.78038
2.72308
2.60929
2.42621
2.18567
2.04629
1.92528
1.8438
1.79932
1.7485
1.73922
1.73459
1.72877
1.73714
1.76172
1.7946
1.83184
1.90039
1.89668
1.87784
1.85407
1.85119
1.85556
1.87173
1.88248
1.87758
1.87266
1.87002
1.86339
1.86302
1.86208
1.85957
1.85481
1.84797
1.84367
1.83885
1.83302
1.82653
1.82015
1.8141
1.80848
1.80276
1.797
1.79115
1.78528
1.77927
1.77282
1.76688
1.76157
1.75638
1.75132
1.74623
1.74096
1.73544
1.72971
1.72429
1.71965
1.71533
1.71098
1.70658
1.70216
1.69767
1.69312
1.68855
1.68404
1.67946
1.6746
1.66876
1.66265
1.6684
1.91548
1.85735
1.77729
1.75267
1.7232
1.72186
1.71137
1.68329
1.64915
1.62904
1.64426
1.68125
1.72097
1.75601
1.79524
1.81835
1.82842
1.85981
1.90847
1.96334
2.01875
2.07879
2.12994
2.1792
2.23108
2.28606
2.34723
2.40894
2.53282
2.60325
2.57593
2.47264
2.32107
2.10415
1.91965
1.83556
1.76335
1.72212
1.68521
1.64957
1.63109
1.61986
1.60791
1.61465
1.63393
1.6594
1.69301
1.74931
1.8107
1.9014
1.88443
1.83746
1.83783
1.83907
1.84381
1.85418
1.85899
1.85745
1.85531
1.85055
1.84809
1.8458
1.84276
1.83721
1.83207
1.82821
1.82311
1.81654
1.81095
1.80569
1.80035
1.79485
1.78913
1.78303
1.77635
1.76952
1.76411
1.75902
1.75387
1.74855
1.74298
1.73713
1.73158
1.72654
1.72173
1.71725
1.71307
1.70887
1.70454
1.70003
1.69531
1.69034
1.68522
1.68021
1.67544
1.67066
1.66563
1.65966
1.65335
1.65907
1.91091
1.86632
1.81302
1.78486
1.7376
1.7296
1.71277
1.68342
1.64938
1.60963
1.59856
1.60996
1.63065
1.64877
1.66861
1.67768
1.68042
1.69071
1.71565
1.75293
1.79221
1.82895
1.86739
1.90786
1.9505
1.99772
2.06242
2.13702
2.28768
2.44521
2.34011
2.2216
2.06713
1.88
1.79194
1.7266
1.68302
1.64748
1.61235
1.59148
1.57424
1.55664
1.54519
1.5477
1.55572
1.56517
1.58814
1.62925
1.67527
1.74365
1.84185
1.89891
1.87176
1.84431
1.82486
1.8278
1.83384
1.84622
1.84275
1.8385
1.83184
1.83105
1.83106
1.82959
1.82464
1.81795
1.81191
1.80547
1.80069
1.79665
1.79186
1.78607
1.77908
1.77193
1.76728
1.76268
1.75788
1.75278
1.74725
1.74154
1.73577
1.73051
1.72567
1.72092
1.71626
1.71181
1.70749
1.70312
1.69865
1.69406
1.68933
1.68449
1.67963
1.67475
1.66988
1.66496
1.65974
1.65352
1.64677
1.65239
1.90505
1.86492
1.8273
1.80156
1.76227
1.74623
1.72292
1.69201
1.6564
1.61866
1.58032
1.5798
1.59127
1.59819
1.60328
1.61088
1.61012
1.60065
1.60576
1.62111
1.64453
1.6733
1.69797
1.72513
1.7571
1.80004
1.86287
1.98148
2.26216
2.23771
2.14923
2.04353
1.90954
1.79191
1.72535
1.67595
1.63966
1.60318
1.57203
1.55004
1.53374
1.52325
1.52126
1.51853
1.51417
1.5161
1.52884
1.54692
1.57126
1.61613
1.6784
1.75631
1.89402
1.8823
1.83155
1.82568
1.81238
1.81407
1.81771
1.82362
1.82538
1.82265
1.8169
1.81263
1.80779
1.79944
1.79621
1.79328
1.78907
1.78346
1.77743
1.77202
1.76695
1.76187
1.75688
1.75191
1.74708
1.74218
1.73706
1.73144
1.72593
1.72158
1.71734
1.71302
1.70864
1.70423
1.69977
1.69527
1.69069
1.68608
1.68141
1.6767
1.67206
1.66736
1.66253
1.65758
1.65226
1.64591
1.63901
1.64484
1.89721
1.85804
1.82503
1.80263
1.77757
1.7604
1.73618
1.70698
1.67208
1.63501
1.59642
1.57011
1.5706
1.57368
1.581
1.57896
1.57074
1.56045
1.55468
1.55553
1.56245
1.57737
1.59463
1.6124
1.63877
1.68193
1.76356
1.92619
2.21958
2.07436
2.01166
1.92931
1.82253
1.76558
1.71671
1.67371
1.63206
1.59355
1.56724
1.5433
1.51928
1.50565
1.50109
1.50234
1.49997
1.50141
1.50387
1.503
1.51124
1.53097
1.5611
1.61113
1.68778
1.77594
1.89866
1.86382
1.82539
1.78153
1.7895
1.792
1.79986
1.79897
1.79553
1.79167
1.78848
1.783
1.77781
1.77471
1.77109
1.76565
1.7582
1.75339
1.74962
1.74582
1.7419
1.73753
1.73265
1.72758
1.72204
1.71586
1.71146
1.70797
1.70438
1.70057
1.69655
1.69232
1.68793
1.68347
1.67901
1.67452
1.66995
1.66528
1.66075
1.6562
1.65157
1.64684
1.64173
1.63556
1.62887
1.6351
1.88657
1.85053
1.8195
1.79949
1.78041
1.76457
1.74632
1.72278
1.69178
1.65646
1.6197
1.58758
1.56545
1.56749
1.56944
1.56432
1.55879
1.55088
1.53428
1.52739
1.52264
1.52865
1.54351
1.5588
1.58558
1.64542
1.77386
2.06948
2.07355
1.99432
1.94397
1.877
1.80373
1.76112
1.72075
1.67885
1.64658
1.61722
1.5928
1.56627
1.5516
1.53813
1.52301
1.5084
1.49191
1.49311
1.49291
1.48418
1.48573
1.48821
1.49708
1.51732
1.55408
1.6068
1.69363
1.82722
1.85268
1.80196
1.78757
1.75865
1.76546
1.76762
1.77709
1.77361
1.77208
1.76685
1.76091
1.75728
1.75376
1.74986
1.74429
1.73726
1.7345
1.73139
1.72744
1.72279
1.71727
1.71147
1.70568
1.69973
1.696
1.69263
1.68912
1.68543
1.68159
1.67758
1.67348
1.66931
1.66506
1.66067
1.65606
1.65151
1.64729
1.64299
1.63854
1.63393
1.62887
1.62273
1.61597
1.62252
1.88296
1.84292
1.81182
1.79144
1.77538
1.76253
1.74788
1.72963
1.70671
1.67749
1.64518
1.61429
1.58151
1.56629
1.56659
1.56544
1.55719
1.54408
1.53266
1.52316
1.5041
1.50766
1.52073
1.5385
1.58451
1.68694
1.86915
2.07851
1.97103
1.94201
1.90143
1.85534
1.81122
1.7765
1.74048
1.70811
1.67932
1.65186
1.62689
1.60485
1.58517
1.56524
1.54321
1.52863
1.51837
1.50398
1.48703
1.46786
1.46947
1.47177
1.47066
1.4666
1.47534
1.49823
1.54815
1.61606
1.70239
1.8538
1.83215
1.78145
1.76366
1.74487
1.75032
1.7527
1.75609
1.7547
1.75062
1.7454
1.73694
1.73381
1.73042
1.72649
1.72186
1.71729
1.71304
1.70893
1.7045
1.69952
1.69381
1.6864
1.68172
1.6789
1.67597
1.67285
1.66946
1.66566
1.66139
1.65666
1.6516
1.64639
1.641
1.6364
1.63209
1.62772
1.62324
1.61864
1.61358
1.60743
1.6005
1.60728
1.87869
1.83946
1.8043
1.78544
1.76725
1.75607
1.74435
1.72995
1.71278
1.69042
1.66522
1.63619
1.6098
1.57814
1.57163
1.5673
1.5588
1.54792
1.53608
1.5229
1.50527
1.51077
1.52325
1.55517
1.63713
1.79826
2.07484
2.00661
1.93668
1.9023
1.87772
1.8522
1.82449
1.79438
1.7603
1.73218
1.70468
1.67993
1.6555
1.63374
1.61265
1.59055
1.56948
1.55273
1.53509
1.51629
1.49524
1.48304
1.46516
1.45724
1.44953
1.44229
1.44656
1.44911
1.46469
1.49347
1.55198
1.63333
1.73233
1.84457
1.80731
1.77605
1.72396
1.7277
1.73423
1.74489
1.74322
1.74301
1.73801
1.73177
1.72387
1.7215
1.71925
1.71661
1.7129
1.70722
1.7008
1.69536
1.68994
1.68405
1.67923
1.67563
1.67191
1.66804
1.66403
1.65983
1.65533
1.65048
1.6453
1.63983
1.6342
1.62965
1.62518
1.62063
1.61602
1.61127
1.60603
1.59969
1.59223
1.59895
1.87959
1.83805
1.80138
1.78045
1.76671
1.75008
1.73881
1.72744
1.71292
1.695
1.67324
1.64802
1.62187
1.59537
1.58242
1.56931
1.5646
1.55375
1.53884
1.5247
1.5224
1.52956
1.54602
1.60896
1.75003
2.04017
1.99499
1.91522
1.9071
1.89359
1.87736
1.85826
1.83579
1.81149
1.78474
1.75757
1.73096
1.70611
1.68102
1.65795
1.6351
1.61103
1.59101
1.57097
1.5481
1.52998
1.51537
1.49709
1.47866
1.46027
1.44094
1.43185
1.43306
1.43092
1.43506
1.43678
1.45929
1.50041
1.56714
1.65919
1.80671
1.80768
1.75714
1.7499
1.71873
1.72364
1.73086
1.73241
1.73111
1.72637
1.71921
1.7107
1.70915
1.70723
1.70416
1.69967
1.69413
1.68829
1.68217
1.67781
1.67408
1.67028
1.6664
1.66251
1.65861
1.65464
1.65043
1.64582
1.64081
1.63548
1.62988
1.62555
1.62121
1.61666
1.6119
1.60689
1.60133
1.59465
1.58659
1.59345
1.88219
1.83721
1.80277
1.77683
1.76494
1.75203
1.73359
1.72285
1.71102
1.69575
1.67647
1.65453
1.62896
1.60717
1.59427
1.57854
1.57136
1.55923
1.54416
1.5399
1.54685
1.55819
1.60744
1.72303
1.98635
1.97651
1.90474
1.9036
1.89827
1.88982
1.87849
1.86393
1.84611
1.825
1.80233
1.77741
1.75165
1.72577
1.70046
1.67613
1.651
1.6283
1.60786
1.58438
1.56102
1.54629
1.52748
1.50881
1.49146
1.47329
1.46295
1.45182
1.43869
1.42482
1.42209
1.41704
1.42437
1.43842
1.46415
1.50996
1.5843
1.67404
1.82635
1.80469
1.76563
1.73105
1.706
1.7139
1.71591
1.71612
1.71435
1.70824
1.69956
1.695
1.69349
1.69076
1.68739
1.68307
1.67799
1.67159
1.66815
1.6649
1.66133
1.65762
1.65382
1.64989
1.64569
1.64112
1.63619
1.63103
1.62588
1.62134
1.61675
1.61202
1.60706
1.60187
1.59613
1.58929
1.58088
1.58785
1.89218
1.8433
1.80861
1.77922
1.76342
1.75424
1.73643
1.72089
1.70919
1.69496
1.67749
1.6563
1.63079
1.61062
1.59586
1.58638
1.57357
1.55185
1.55472
1.56167
1.57198
1.61504
1.71917
1.95066
1.98415
1.91339
1.90924
1.90191
1.89469
1.88892
1.88119
1.86921
1.85301
1.83312
1.81115
1.78837
1.7643
1.73981
1.7149
1.68956
1.66499
1.64283
1.6198
1.59506
1.57954
1.55986
1.53727
1.52278
1.50609
1.49233
1.47812
1.46487
1.45217
1.44007
1.42368
1.41757
1.41383
1.41648
1.41441
1.42734
1.46193
1.52491
1.6107
1.73328
1.80486
1.75868
1.7394
1.69183
1.6934
1.70158
1.70303
1.70198
1.69806
1.69227
1.68776
1.68483
1.68095
1.67671
1.67214
1.66715
1.66117
1.658
1.65509
1.65188
1.64855
1.64509
1.64138
1.63719
1.63255
1.62752
1.62199
1.61705
1.61214
1.60715
1.60191
1.59638
1.5903
1.5831
1.57406
1.58118
1.91028
1.85593
1.81327
1.78341
1.76153
1.75449
1.74184
1.72061
1.70804
1.6956
1.67947
1.65969
1.63505
1.60945
1.59595
1.58613
1.56487
1.56115
1.5677
1.57932
1.6181
1.71285
1.90175
2.01558
1.92569
1.91754
1.89734
1.88619
1.88388
1.8796
1.87292
1.8627
1.8486
1.83208
1.81233
1.79134
1.76878
1.74506
1.72218
1.6986
1.67657
1.65326
1.62867
1.61307
1.5939
1.57297
1.55601
1.53941
1.52294
1.50631
1.48928
1.4774
1.46581
1.45278
1.43979
1.42653
1.4073
1.40155
1.39582
1.3994
1.40484
1.43095
1.47798
1.54859
1.63983
1.78625
1.77411
1.73077
1.71205
1.67283
1.67526
1.68159
1.68133
1.68161
1.68109
1.6796
1.67509
1.66805
1.66309
1.6594
1.6553
1.65106
1.64821
1.64543
1.64284
1.6402
1.63727
1.6335
1.62872
1.62339
1.61733
1.6113
1.60625
1.60105
1.59557
1.5898
1.58352
1.57617
1.56669
1.57386
1.91879
1.87279
1.82816
1.79432
1.75929
1.74835
1.74201
1.72203
1.70554
1.69593
1.68027
1.6615
1.63806
1.61419
1.59919
1.5825
1.56368
1.57305
1.5849
1.6138
1.70076
1.86256
2.04615
1.94822
1.93184
1.90613
1.88178
1.87857
1.87419
1.86817
1.86067
1.85134
1.83955
1.82523
1.8087
1.78964
1.76945
1.74775
1.72602
1.70398
1.6819
1.65814
1.64039
1.62164
1.59981
1.58502
1.5682
1.54923
1.53236
1.51489
1.50203
1.48798
1.47459
1.46272
1.45082
1.43695
1.41965
1.40241
1.3868
1.3866
1.38642
1.39235
1.4094
1.43998
1.49251
1.5709
1.67047
1.78844
1.75221
1.71771
1.6673
1.66381
1.67116
1.67362
1.67772
1.67714
1.67528
1.66807
1.65894
1.6523
1.64863
1.64652
1.64461
1.64239
1.63956
1.6363
1.63298
1.6292
1.62443
1.61869
1.61214
1.60452
1.59841
1.59306
1.58773
1.5821
1.576
1.56865
1.55903
1.5663
1.97334
1.88093
1.84066
1.80525
1.77019
1.742
1.73896
1.72553
1.70195
1.69223
1.68405
1.66715
1.64175
1.61486
1.60095
1.58578
1.57936
1.59101
1.61267
1.68531
1.83499
2.06582
1.98942
1.95369
1.89969
1.88302
1.87914
1.87236
1.86495
1.85743
1.84936
1.84048
1.83007
1.81777
1.80368
1.7877
1.77057
1.75177
1.7324
1.7109
1.68726
1.67002
1.65044
1.62823
1.6118
1.59443
1.57656
1.55741
1.54131
1.5253
1.51185
1.49763
1.48372
1.47017
1.45621
1.44239
1.4281
1.41205
1.39944
1.38822
1.37764
1.37882
1.386
1.3924
1.41136
1.44975
1.51189
1.59914
1.74322
1.74152
1.6927
1.68537
1.65266
1.6555
1.66303
1.6653
1.66525
1.66418
1.6591
1.65143
1.64306
1.64221
1.64129
1.63924
1.63617
1.63237
1.6285
1.62419
1.61873
1.61245
1.60552
1.59741
1.58999
1.58487
1.57976
1.57427
1.56828
1.56081
1.551
1.55838
1.98981
1.90939
1.85155
1.82064
1.78664
1.74645
1.73438
1.7257
1.7016
1.68971
1.68463
1.67161
1.65097
1.62294
1.60137
1.60002
1.60765
1.61923
1.67821
1.81243
2.06451
2.0117
1.96542
1.90837
1.88849
1.88209
1.87221
1.86096
1.85288
1.84598
1.83877
1.83082
1.822
1.81185
1.80022
1.78699
1.77214
1.75588
1.73821
1.71989
1.70019
1.68069
1.66072
1.64263
1.62436
1.60639
1.58829
1.57154
1.55395
1.53976
1.52467
1.51243
1.50001
1.48667
1.47297
1.45963
1.44535
1.43002
1.41331
1.40309
1.39387
1.38401
1.3774
1.37591
1.3814
1.39246
1.41415
1.45996
1.52888
1.61232
1.74515
1.72091
1.67933
1.65923
1.6352
1.63878
1.64838
1.65411
1.65424
1.65136
1.64441
1.63367
1.63061
1.62929
1.62684
1.62354
1.62037
1.61656
1.61099
1.60346
1.59559
1.58665
1.58057
1.57578
1.57066
1.56539
1.55957
1.55229
1.54222
1.54983
2.0963
1.97434
1.86673
1.82031
1.78766
1.75106
1.72597
1.72224
1.70661
1.68782
1.68199
1.67438
1.65859
1.62664
1.61342
1.62356
1.64056
1.6896
1.80622
2.05419
2.02247
1.97278
1.90981
1.8979
1.89254
1.88239
1.86954
1.85659
1.8482
1.84133
1.83418
1.82655
1.81792
1.80831
1.79756
1.78564
1.77245
1.75807
1.74259
1.72599
1.70818
1.6896
1.67101
1.65244
1.63382
1.61569
1.59786
1.58091
1.56394
1.54993
1.53571
1.52204
1.50963
1.49665
1.48322
1.46886
1.45362
1.43779
1.42353
1.41202
1.40177
1.39196
1.38189
1.36829
1.36872
1.37128
1.37357
1.38743
1.41493
1.46354
1.54093
1.63372
1.7261
1.69233
1.66921
1.6379
1.62837
1.6337
1.6428
1.64319
1.64127
1.63295
1.62217
1.61691
1.61476
1.61234
1.60946
1.60588
1.60092
1.59359
1.58593
1.57725
1.56923
1.5646
1.5596
1.55447
1.54885
1.54196
1.53176
1.53975
2.1923
1.91899
1.88561
1.82831
1.79586
1.76234
1.72884
1.71875
1.71224
1.69349
1.68054
1.67451
1.6613
1.63658
1.63973
1.65458
1.70257
1.81402
2.05718
2.04999
1.99637
1.92227
1.90895
1.90658
1.89861
1.88728
1.87398
1.86028
1.84859
1.83922
1.83062
1.82199
1.81304
1.80344
1.79342
1.78285
1.7715
1.75907
1.74536
1.73046
1.71454
1.69766
1.68039
1.66261
1.64478
1.62698
1.60924
1.59174
1.57532
1.55975
1.54626
1.53237
1.51861
1.50475
1.49048
1.47533
1.45945
1.44218
1.43022
1.4185
1.40666
1.39776
1.38921
1.37857
1.36359
1.36057
1.36198
1.36175
1.36333
1.37951
1.41921
1.4822
1.56329
1.69871
1.69812
1.65783
1.64785
1.62165
1.61858
1.62197
1.62697
1.62552
1.61955
1.61249
1.60465
1.60192
1.59889
1.59527
1.59066
1.58442
1.57644
1.56768
1.5568
1.55216
1.54748
1.54247
1.53708
1.53072
1.5207
1.52893
2.48513
2.128
1.90937
1.85303
1.8141
1.78938
1.75295
1.73061
1.72935
1.7108
1.68568
1.67964
1.66822
1.66839
1.67577
1.71364
1.82184
2.0443
2.08734
2.0287
1.94446
1.92578
1.92303
1.91439
1.90298
1.8898
1.87616
1.86212
1.84843
1.83718
1.82724
1.81776
1.80849
1.79907
1.78924
1.77911
1.76843
1.75709
1.74489
1.7318
1.71773
1.7028
1.68699
1.67045
1.65366
1.63611
1.61823
1.60083
1.58375
1.56844
1.55491
1.54134
1.5273
1.5136
1.49911
1.48407
1.46831
1.45103
1.43395
1.42494
1.41743
1.40784
1.39679
1.38509
1.37317
1.36528
1.35614
1.35158
1.34411
1.34909
1.36048
1.38432
1.4287
1.50415
1.58749
1.70542
1.67978
1.6466
1.62585
1.59658
1.59973
1.60655
1.60528
1.60183
1.59592
1.59078
1.58473
1.58134
1.57712
1.57127
1.56316
1.55441
1.54395
1.53873
1.53462
1.52972
1.52458
1.51868
1.50936
1.51782
2.2426
2.34666
2.01562
1.90993
1.8178
1.7928
1.76452
1.73399
1.72846
1.71618
1.68507
1.68381
1.69043
1.70047
1.73609
1.83431
2.04511
2.11702
2.05524
1.97072
1.94405
1.93896
1.92889
1.91618
1.90214
1.88839
1.8749
1.86153
1.8481
1.83585
1.82459
1.81389
1.80356
1.79409
1.78454
1.77485
1.76496
1.75475
1.74398
1.7325
1.72008
1.70665
1.6922
1.67698
1.66081
1.64411
1.62648
1.60849
1.5918
1.57639
1.56228
1.54846
1.53452
1.52045
1.50566
1.49043
1.47452
1.45786
1.4392
1.43005
1.42269
1.41389
1.40322
1.39085
1.38021
1.37017
1.35971
1.34985
1.33904
1.34024
1.33752
1.3399
1.3546
1.38747
1.44498
1.52951
1.68652
1.69032
1.64344
1.62847
1.5985
1.58475
1.58501
1.58968
1.58815
1.58319
1.57801
1.57224
1.5659
1.55683
1.54799
1.54209
1.53547
1.52779
1.52228
1.51662
1.51123
1.50524
1.49784
1.50633
1.4769
2.28539
2.1568
1.89524
1.85283
1.80012
1.77305
1.74237
1.72611
1.70403
1.699
1.70054
1.71577
1.75853
1.85757
2.04988
2.14529
2.07954
1.99881
1.9587
1.95514
1.94609
1.93374
1.91951
1.90439
1.88953
1.87579
1.8623
1.84946
1.83675
1.82483
1.81309
1.80206
1.79202
1.78233
1.7726
1.76267
1.75242
1.74177
1.73071
1.71903
1.70659
1.69326
1.67892
1.6636
1.64725
1.62996
1.61175
1.59539
1.57971
1.56492
1.55157
1.53787
1.52344
1.50872
1.49334
1.47736
1.46116
1.44468
1.43246
1.42443
1.41585
1.40636
1.39595
1.38493
1.37442
1.3636
1.35573
1.3476
1.33772
1.32674
1.32702
1.32693
1.3338
1.36139
1.41396
1.49025
1.57818
1.69085
1.66113
1.62617
1.60351
1.57218
1.56752
1.57018
1.57085
1.5682
1.56368
1.55785
1.54957
1.54002
1.53203
1.52593
1.51897
1.51289
1.50693
1.50115
1.49482
1.48729
1.49505
1.12534
1.69173
2.40013
2.09333
1.87653
1.82442
1.78063
1.75306
1.72023
1.69972
1.71328
1.73018
1.77482
1.88303
2.08643
2.18068
2.11139
2.03096
1.97645
1.97415
1.96648
1.95526
1.9417
1.92631
1.91022
1.89449
1.88003
1.86635
1.85299
1.83979
1.82666
1.81363
1.80102
1.7895
1.77823
1.76703
1.75579
1.74524
1.73473
1.72393
1.71279
1.70124
1.68903
1.67608
1.66204
1.64695
1.6309
1.61393
1.59816
1.58333
1.56906
1.55493
1.54101
1.52659
1.51204
1.49708
1.48159
1.46675
1.45285
1.44086
1.43273
1.42418
1.41494
1.40572
1.39608
1.3861
1.3761
1.3687
1.3604
1.3513
1.34206
1.32856
1.33047
1.32795
1.33592
1.35649
1.39231
1.44157
1.52505
1.64967
1.67221
1.63649
1.6186
1.59234
1.55933
1.55911
1.56323
1.56062
1.55597
1.55049
1.54273
1.53205
1.52311
1.51367
1.50728
1.50076
1.49393
1.48672
1.47869
1.48575
1.04529
1.28474
2.25935
2.29955
1.99503
1.87979
1.79718
1.75582
1.70903
1.71406
1.73345
1.78092
1.89742
2.11522
2.21943
2.14586
2.06711
2.00394
1.99976
1.99269
1.98138
1.96663
1.94909
1.93305
1.9168
1.90048
1.88493
1.87013
1.85567
1.84134
1.82704
1.81278
1.79846
1.78528
1.77231
1.75935
1.74656
1.73423
1.72357
1.71289
1.70192
1.69069
1.67916
1.66708
1.65409
1.64016
1.62544
1.61035
1.59622
1.58216
1.56806
1.55401
1.5401
1.52628
1.51215
1.49781
1.48341
1.46937
1.45894
1.44842
1.43932
1.43107
1.42287
1.41385
1.40551
1.39682
1.38885
1.38034
1.37215
1.36447
1.35663
1.34832
1.33679
1.327
1.33075
1.33945
1.35062
1.37209
1.41499
1.4871
1.57538
1.7062
1.68001
1.63642
1.60886
1.56614
1.56219
1.56224
1.56109
1.55543
1.54644
1.53875
1.53013
1.51958
1.50443
1.49803
1.4912
1.48432
1.47734
1.48343
1.0091
1.07335
1.39134
2.16067
2.07837
1.84935
1.80244
1.75323
1.72472
1.73821
1.78744
1.90783
2.13101
2.23547
2.16105
2.07633
2.01688
2.01432
2.00868
1.99761
1.98236
1.96272
1.94598
1.9304
1.91449
1.89844
1.88269
1.86717
1.85158
1.83582
1.81996
1.80445
1.7894
1.7752
1.76154
1.74786
1.73453
1.72107
1.71007
1.70054
1.69069
1.68049
1.67009
1.65933
1.6478
1.63548
1.6227
1.61056
1.59852
1.58631
1.57401
1.56144
1.54882
1.53595
1.52284
1.50938
1.49569
1.48269
1.47212
1.46332
1.45545
1.44755
1.43927
1.43093
1.42315
1.4161
1.40935
1.40307
1.39656
1.39007
1.38387
1.37727
1.36876
1.35815
1.35276
1.35663
1.3623
1.36429
1.37817
1.4196
1.48203
1.56409
1.71334
1.71356
1.67256
1.64069
1.61225
1.578
1.57287
1.57042
1.56416
1.55586
1.54635
1.53424
1.51532
1.50021
1.49551
1.48913
1.48055
1.48529