/*--------------------------------*- C++ -*----------------------------------*\
| =========                 |                                                 |
| \\      /  F ield         | OpenFOAM: The Open Source CFD Toolbox           |
|  \\    /   O peration     | Version:  v2106                                 |
|   \\  /    A nd           | Website:  www.openfoam.com                      |
|    \\/     M anipulation  |                                                 |
\*---------------------------------------------------------------------------*/
FoamFile
{
    version     2.0;
    format      ascii;
    arch        "LSB;label=32;scalar=64";
    class       volVectorField;
    location    "16";
    object      U;
}
// * * * * * * * * * * * * * * * * * * * * * * * * * * * * * * * * * * * * * //

dimensions      [0 1 -1 0 0 0 0];

internalField   nonuniform List<vector> 
5250
(
(3 -1.00788e-14 0)
(3 1.26231e-14 0)
(3 1.11377e-13 0)
(3 9.35152e-13 0)
(3 8.00798e-12 0)
(3 7.97028e-11 0)
(3 5.62922e-10 0)
(3 6.78598e-09 0)
(3 3.71928e-08 0)
(3.00001 5.6947e-07 0)
(3.00011 2.35752e-06 0)
(3.00067 4.58876e-05 0)
(3.01021 0.000180212 0)
(3.05547 0.00319167 0)
(2.60921 0.00734684 0)
(0.984789 0.0455282 0)
(0.372737 0.0156158 0)
(0.530291 0.020017 0)
(0.454175 0.02139 0)
(0.387816 0.0219241 0)
(0.337712 0.02492 0)
(0.270064 0.0263169 0)
(0.203231 0.0282617 0)
(0.125937 0.032111 0)
(0.0479822 0.0392275 0)
(3 -2.40932e-14 0)
(3 3.48171e-14 0)
(3 3.50322e-13 0)
(3 2.37274e-12 0)
(3 2.63197e-11 0)
(3 2.04987e-10 0)
(3 1.9397e-09 0)
(3 1.78905e-08 0)
(3 1.3677e-07 0)
(3.00001 1.55669e-06 0)
(3.0001 9.30137e-06 0)
(3.00068 0.000131268 0)
(3.0093 0.000708698 0)
(3.05781 0.00996699 0)
(2.62199 0.0267793 0)
(1.00104 0.13366 0)
(0.353326 0.0438618 0)
(0.523903 0.0572782 0)
(0.44561 0.0572252 0)
(0.377317 0.0641423 0)
(0.329971 0.0725781 0)
(0.265384 0.0793897 0)
(0.198238 0.0895639 0)
(0.120886 0.0956496 0)
(0.0420199 0.105626 0)
(3 -2.79193e-14 0)
(3 5.00139e-14 0)
(3 6.01946e-13 0)
(3 2.6355e-12 0)
(3 4.69811e-11 0)
(3 2.24305e-10 0)
(3 3.65402e-09 0)
(3 1.99921e-08 0)
(3 2.76324e-07 0)
(3.00001 1.84283e-06 0)
(3.00008 2.01147e-05 0)
(3.00071 0.000172869 0)
(3.0075 0.00148684 0)
(3.06309 0.0160789 0)
(2.65694 0.0418304 0)
(1.06906 0.238062 0)
(0.329382 0.0749228 0)
(0.52055 0.0929313 0)
(0.436176 0.101873 0)
(0.371754 0.106613 0)
(0.325076 0.116605 0)
(0.259619 0.129595 0)
(0.197369 0.145536 0)
(0.119105 0.159991 0)
(0.0428201 0.173924 0)
(3 -1.26251e-14 0)
(3 5.28162e-14 0)
(3 7.65532e-13 0)
(3 1.34306e-12 0)
(3 6.52658e-11 0)
(3 9.32656e-11 0)
(3 5.0886e-09 0)
(3 7.3199e-09 0)
(3 3.95061e-07 0)
(3.00001 7.69635e-07 0)
(3.00006 2.94603e-05 0)
(3.00074 0.000112063 0)
(3.00526 0.00202394 0)
(3.0676 0.0185713 0)
(2.71107 0.0405813 0)
(1.21848 0.33684 0)
(0.315673 0.116498 0)
(0.527108 0.131014 0)
(0.436161 0.138605 0)
(0.369837 0.146754 0)
(0.32172 0.166219 0)
(0.259466 0.18081 0)
(0.198657 0.20495 0)
(0.121668 0.223919 0)
(0.0427626 0.241687 0)
(3 4.52562e-15 0)
(3 3.22122e-14 0)
(3 8.40531e-13 0)
(3 -2.27953e-12 0)
(3 7.27818e-11 0)
(3 -1.16022e-10 0)
(3 6.03252e-09 0)
(3 -1.26352e-08 0)
(3 4.77942e-07 0)
(3.00001 -2.03612e-06 0)
(3.00004 3.433e-05 0)
(3.00078 -4.9376e-05 0)
(3.00331 0.00225648 0)
(3.06903 0.0187861 0)
(2.76613 0.0324141 0)
(1.44513 0.421925 0)
(0.310685 0.169767 0)
(0.542241 0.175845 0)
(0.44781 0.184927 0)
(0.371702 0.19149 0)
(0.328093 0.208255 0)
(0.265755 0.226523 0)
(0.208405 0.259459 0)
(0.12488 0.289589 0)
(0.0454922 0.312641 0)
(3 4.66602e-14 0)
(3 -4.81056e-14 0)
(3 -2.99434e-13 0)
(3 -1.32916e-11 0)
(3 1.696e-10 0)
(3 -4.28539e-10 0)
(3 9.20881e-09 0)
(3 -4.17921e-10 0)
(3 6.40877e-07 0)
(3.00001 -1.47832e-06 0)
(3.00003 4.92796e-05 0)
(3.0006 -0.000497157 0)
(3.00159 0.00238672 0)
(3.06813 0.0188477 0)
(2.821 0.0337134 0)
(1.71258 0.475153 0)
(0.338326 0.242128 0)
(0.565377 0.225573 0)
(0.472445 0.234196 0)
(0.38497 0.236547 0)
(0.335403 0.257396 0)
(0.276624 0.279558 0)
(0.216197 0.32102 0)
(0.126327 0.363837 0)
(0.0521185 0.386309 0)
(3 -1.18683e-14 0)
(3 7.86219e-14 0)
(3 -1.23143e-12 0)
(3 2.32805e-12 0)
(3 -9.30857e-11 0)
(3 -3.55868e-10 0)
(3 8.83474e-09 0)
(3 1.78549e-08 0)
(3 5.06371e-07 0)
(3.00001 2.27105e-06 0)
(2.99998 3.10374e-05 0)
(3.00075 0.000205513 0)
(3.00013 0.00193155 0)
(3.06442 0.0161253 0)
(2.87358 0.0221132 0)
(2.03878 0.473462 0)
(0.417537 0.33177 0)
(0.60808 0.288888 0)
(0.52567 0.28952 0)
(0.418327 0.293735 0)
(0.360569 0.300009 0)
(0.31308 0.322718 0)
(0.223539 0.387571 0)
(0.157485 0.427434 0)
(0.0637194 0.471066 0)
(3 -2.37919e-14 0)
(3 2.00739e-13 0)
(3 1.10012e-12 0)
(3 1.07706e-11 0)
(3 -1.20732e-10 0)
(3 3.3836e-11 0)
(3 4.88119e-09 0)
(3 1.0691e-08 0)
(3 2.75746e-07 0)
(3.00002 1.45657e-06 0)
(2.99993 1.9416e-05 0)
(3.00093 0.000146104 0)
(2.99907 0.00150999 0)
(3.05746 0.0140331 0)
(2.91695 0.0365483 0)
(2.19636 0.394243 0)
(0.524769 0.412775 0)
(0.655577 0.362763 0)
(0.589282 0.35541 0)
(0.470856 0.361914 0)
(0.405452 0.352286 0)
(0.329853 0.396951 0)
(0.24969 0.458122 0)
(0.183913 0.510203 0)
(0.063702 0.578163 0)
(3 8.24765e-15 0)
(3 -1.45369e-14 0)
(3 1.91789e-12 0)
(3 -1.77114e-12 0)
(3 1.13326e-10 0)
(3 5.93641e-10 0)
(3 -1.05094e-08 0)
(3 -3.4475e-09 0)
(3 2.0931e-07 0)
(3.00002 1.49962e-06 0)
(2.99992 1.66289e-05 0)
(3.00084 0.000129179 0)
(2.99854 0.00135489 0)
(3.04797 0.0117082 0)
(2.96399 0.0551515 0)
(2.32896 0.322586 0)
(0.622528 0.467541 0)
(0.689855 0.430732 0)
(0.647544 0.422498 0)
(0.54098 0.439895 0)
(0.472224 0.414958 0)
(0.376485 0.461808 0)
(0.320455 0.519383 0)
(0.238467 0.585939 0)
(0.141378 0.704624 0)
(3 2.55497e-14 0)
(3 -1.27943e-14 0)
(3 6.94213e-13 0)
(3 8.91991e-13 0)
(3 3.37157e-11 0)
(3 4.02093e-10 0)
(3 -1.22336e-09 0)
(3 2.97092e-08 0)
(3 6.31327e-08 0)
(3.00002 1.98723e-06 0)
(2.99989 8.89773e-06 0)
(3.00101 0.00014429 0)
(2.9969 0.000961037 0)
(3.04901 0.0112025 0)
(3.00486 0.0609202 0)
(2.46402 0.270677 0)
(0.719822 0.519332 0)
(0.707759 0.46562 0)
(0.686157 0.477971 0)
(0.621525 0.501353 0)
(0.545116 0.500847 0)
(0.441154 0.537054 0)
(0.373922 0.606244 0)
(0.306651 0.700434 0)
(0.0961996 0.941795 0)
(3 1.00712e-14 0)
(3 1.24542e-13 0)
(3 7.79591e-13 0)
(3 1.38419e-11 0)
(3 8.33955e-11 0)
(3 7.72409e-10 0)
(3 9.49512e-09 0)
(3 7.17514e-08 0)
(3 -6.73101e-08 0)
(3.00001 2.94188e-06 0)
(2.99999 4.96255e-06 0)
(3.0002 -0.000336327 0)
(3.00048 0.0012497 0)
(3.018 -0.0433196 0)
(3.03201 0.0702282 0)
(2.59148 0.244982 0)
(0.889155 0.577144 0)
(0.668172 0.470664 0)
(0.716341 0.506838 0)
(0.666184 0.576475 0)
(0.630064 0.573305 0)
(0.529293 0.616901 0)
(0.46733 0.687075 0)
(0.487248 0.797224 0)
(0.419868 1.12094 0)
(3 4.02963e-14 0)
(3 -5.75885e-14 0)
(3 1.24124e-12 0)
(3 3.25505e-12 0)
(3 8.70046e-11 0)
(3 5.37652e-10 0)
(3 -6.14984e-10 0)
(3 2.1804e-08 0)
(3 4.7e-08 0)
(2.99999 1.35637e-06 0)
(3.00006 8.45537e-06 0)
(2.99975 0.00010229 0)
(3.00265 0.000822876 0)
(2.99849 0.00868702 0)
(3.06752 0.0597158 0)
(2.72268 0.224905 0)
(1.15172 0.666785 0)
(0.593313 0.476877 0)
(0.689939 0.519918 0)
(0.709824 0.603143 0)
(0.685246 0.656554 0)
(0.637453 0.692405 0)
(0.596617 0.747015 0)
(0.687733 0.845844 0)
(0.68948 1.01604 0)
(3 -1.63507e-15 0)
(3 2.38492e-14 0)
(3 2.77036e-13 0)
(3 7.95561e-13 0)
(3 2.5816e-11 0)
(3 -2.65155e-10 0)
(3 1.79407e-09 0)
(3 2.02511e-09 0)
(3 6.09289e-08 0)
(3 4.80492e-07 0)
(3.00001 -1.65932e-06 0)
(3.00003 5.4005e-05 0)
(3.00072 -0.000649206 0)
(3.00201 0.00412878 0)
(3.07331 0.0428199 0)
(2.86463 0.169975 0)
(1.62098 0.769548 0)
(0.575997 0.509532 0)
(0.687458 0.528688 0)
(0.716877 0.599476 0)
(0.711763 0.676202 0)
(0.738182 0.736609 0)
(0.725855 0.785404 0)
(0.799862 0.866137 0)
(0.880869 0.901631 0)
(3 5.04636e-15 0)
(3 5.5641e-14 0)
(3 -2.0341e-13 0)
(3 2.02085e-12 0)
(3 -8.5778e-12 0)
(3 7.55137e-11 0)
(3 1.65372e-10 0)
(3 -1.72836e-09 0)
(3 1.65108e-08 0)
(3 7.52358e-07 0)
(3.00001 4.16004e-06 0)
(2.99999 5.01193e-05 0)
(3.00065 0.000358829 0)
(2.99939 0.00336899 0)
(3.0598 0.0282705 0)
(2.94973 0.098805 0)
(2.17729 0.783259 0)
(0.685063 0.59639 0)
(0.727183 0.562289 0)
(0.738763 0.598463 0)
(0.745746 0.669242 0)
(0.782437 0.73683 0)
(0.819389 0.793075 0)
(0.890182 0.858184 0)
(0.974068 0.867281 0)
(3 5.31424e-15 0)
(3 1.18797e-15 0)
(3 3.26698e-14 0)
(3 8.37741e-13 0)
(3 1.72996e-12 0)
(3 -4.88661e-11 0)
(3 6.06089e-10 0)
(3 8.13231e-10 0)
(3 3.52962e-08 0)
(3 1.74656e-07 0)
(3.00003 2.59547e-06 0)
(2.99989 1.95477e-05 0)
(3.00106 0.000219481 0)
(2.99728 0.00185121 0)
(3.0516 0.0205626 0)
(2.99935 0.0885435 0)
(2.51953 0.644765 0)
(0.920565 0.703994 0)
(0.796711 0.605015 0)
(0.782352 0.621904 0)
(0.78881 0.670551 0)
(0.822033 0.735513 0)
(0.876472 0.792307 0)
(0.955327 0.858204 0)
(1.04583 0.856021 0)
(3 4.17797e-15 0)
(3 -3.74221e-15 0)
(3 1.0418e-13 0)
(3 -3.7631e-13 0)
(3 -5.29884e-12 0)
(3 1.03132e-10 0)
(3 -3.59669e-10 0)
(3 9.43266e-09 0)
(3 1.01692e-07 0)
(3 -1.45741e-07 0)
(3 2.58801e-06 0)
(3.00001 1.1415e-05 0)
(3.00017 -3.22065e-05 0)
(3.00065 0.00169653 0)
(3.01591 -0.0208625 0)
(3.03906 0.101772 0)
(2.73637 0.505759 0)
(1.26744 0.817989 0)
(0.826296 0.645051 0)
(0.835172 0.64681 0)
(0.842506 0.681447 0)
(0.868377 0.732601 0)
(0.922961 0.776766 0)
(0.9917 0.832632 0)
(1.09056 0.83956 0)
(3 3.87022e-16 0)
(3 -4.66855e-15 0)
(3 -1.12181e-14 0)
(3 4.97908e-13 0)
(3 1.48757e-12 0)
(3 2.76593e-11 0)
(3 1.37065e-10 0)
(3 1.48357e-09 0)
(3 2.84704e-08 0)
(3 1.04919e-07 0)
(2.99999 1.82488e-06 0)
(3.00006 1.20446e-05 0)
(2.99972 0.000132013 0)
(3.0024 0.00098049 0)
(2.99548 0.00979636 0)
(3.08006 0.0681447 0)
(2.92432 0.346914 0)
(1.80178 0.924152 0)
(0.833089 0.699147 0)
(0.86563 0.688354 0)
(0.883725 0.7073 0)
(0.904038 0.743912 0)
(0.954012 0.772439 0)
(1.0185 0.815339 0)
(1.11665 0.820226 0)
(3 -1.8956e-16 0)
(3 1.67556e-14 0)
(3 5.98826e-14 0)
(3 1.34922e-12 0)
(3 9.59876e-12 0)
(3 -2.07844e-13 0)
(3 4.88641e-10 0)
(3 1.54707e-09 0)
(3 3.49698e-08 0)
(3 2.06585e-07 0)
(3 9.69404e-08 0)
(3.00003 7.6095e-06 0)
(2.99989 2.58482e-05 0)
(3.00129 0.00049685 0)
(2.99837 0.00329143 0)
(3.06817 0.0382048 0)
(3.0179 0.200821 0)
(2.38894 0.915998 0)
(1.00387 0.774509 0)
(0.927713 0.723081 0)
(0.93445 0.710779 0)
(0.953973 0.732475 0)
(0.995611 0.756958 0)
(1.05128 0.793316 0)
(1.13771 0.801881 0)
(3 1.50904e-16 0)
(3 1.35047e-14 0)
(3 6.16364e-14 0)
(3 3.39947e-14 0)
(3 1.93265e-12 0)
(3 4.13877e-12 0)
(3 2.57056e-10 0)
(3 1.21377e-09 0)
(3 -1.83286e-09 0)
(3 6.33205e-08 0)
(3 2.33689e-08 0)
(3 1.879e-06 0)
(3.00001 2.12128e-05 0)
(3.00024 6.74766e-06 0)
(3.00101 0.00250217 0)
(3.02097 -0.0140235 0)
(3.05778 0.145838 0)
(2.74111 0.722127 0)
(1.35487 0.868149 0)
(0.991065 0.759657 0)
(0.9859 0.735283 0)
(1.00076 0.745662 0)
(1.03399 0.761307 0)
(1.08041 0.787034 0)
(1.15584 0.790772 0)
(3 -1.06492e-16 0)
(3 2.62085e-15 0)
(3 7.42769e-15 0)
(3 1.27264e-13 0)
(3 6.05954e-13 0)
(3 6.4815e-12 0)
(3 3.74462e-11 0)
(3 4.71946e-10 0)
(3 2.8821e-09 0)
(3 3.25797e-08 0)
(3 2.10158e-07 0)
(2.99999 2.29532e-06 0)
(3.0001 1.83849e-05 0)
(2.99956 0.000173476 0)
(3.0038 0.00143795 0)
(2.99089 0.0131762 0)
(3.13587 0.0984104 0)
(2.99013 0.49091 0)
(1.93627 0.935941 0)
(1.02382 0.80252 0)
(1.02949 0.768336 0)
(1.04658 0.771356 0)
(1.07647 0.77509 0)
(1.11475 0.786898 0)
(1.17501 0.786758 0)
(3 8.82138e-16 0)
(3 -3.53942e-15 0)
(3 1.73737e-14 0)
(3 2.51033e-14 0)
(3 1.90562e-12 0)
(3 2.03815e-11 0)
(3 -5.30328e-13 0)
(3 5.72354e-10 0)
(3 -1.56577e-09 0)
(3 3.44832e-08 0)
(3 2.99841e-07 0)
(3 -2.13234e-07 0)
(3.00001 7.64037e-06 0)
(3.00004 1.23651e-05 0)
(3.00042 0.0001938 0)
(3.00324 0.0109834 0)
(3.03653 -0.145697 0)
(3.0694 0.308498 0)
(2.51355 0.998448 0)
(1.22449 0.885435 0)
(1.08277 0.826504 0)
(1.08788 0.78816 0)
(1.11165 0.784533 0)
(1.14737 0.789199 0)
(1.19858 0.785422 0)
(3 9.17775e-17 0)
(3 3.09222e-16 0)
(3 2.4653e-15 0)
(3 2.58455e-14 0)
(3 1.88653e-13 0)
(3 1.8632e-12 0)
(3 1.33811e-11 0)
(3 1.25647e-10 0)
(3 9.15721e-10 0)
(3 8.40251e-09 0)
(3 7.00656e-08 0)
(3 5.47659e-07 0)
(3.00003 4.90238e-06 0)
(2.99998 3.45932e-05 0)
(2.99849 0.000351327 0)
(3.01222 0.00291272 0)
(2.95362 0.0240202 0)
(3.21274 0.190342 0)
(2.94083 0.762347 0)
(1.70061 0.95834 0)
(1.1588 0.858719 0)
(1.14086 0.805962 0)
(1.1563 0.796757 0)
(1.184 0.793567 0)
(1.22566 0.787714 0)
(3 2.60326e-17 0)
(3 2.15149e-15 0)
(3 5.18793e-15 0)
(3 1.67681e-13 0)
(3 2.75601e-14 0)
(3 3.805e-12 0)
(3 7.22132e-12 0)
(3 1.75845e-10 0)
(3 2.56945e-09 0)
(3 1.02485e-09 0)
(3 6.74526e-08 0)
(3 1.90806e-07 0)
(3 3.81675e-06 0)
(3.00001 3.97879e-05 0)
(3.00005 -3.4565e-06 0)
(3.00085 0.000711656 0)
(3.00448 0.0111857 0)
(3.05819 -0.198791 0)
(3.08463 0.536027 0)
(2.31875 1.06052 0)
(1.25108 0.898234 0)
(1.19393 0.859409 0)
(1.1955 0.816056 0)
(1.21605 0.806291 0)
(1.25084 0.796732 0)
(3 4.3282e-17 0)
(3 -1.26658e-16 0)
(3 1.18345e-15 0)
(3 8.68355e-15 0)
(3 6.13766e-14 0)
(3 2.47002e-13 0)
(3 3.32397e-12 0)
(3 2.54767e-11 0)
(3 2.66091e-10 0)
(3 1.79838e-09 0)
(3 1.70943e-08 0)
(3 6.96617e-08 0)
(3 9.48464e-07 0)
(3.00004 8.71039e-06 0)
(2.99996 5.74183e-05 0)
(2.99819 0.000586866 0)
(3.01347 0.00458372 0)
(2.95381 0.0372593 0)
(3.27483 0.298749 0)
(2.92402 0.941203 0)
(1.67152 0.974542 0)
(1.26209 0.89883 0)
(1.24007 0.836963 0)
(1.25407 0.825236 0)
(1.28081 0.811105 0)
(3 4.41147e-17 0)
(3 4.52245e-16 0)
(3 7.3904e-16 0)
(3 1.26965e-14 0)
(3 -1.30886e-14 0)
(3 6.71962e-13 0)
(3 -6.46483e-12 0)
(3 1.46059e-11 0)
(3 7.6874e-11 0)
(3 5.13725e-10 0)
(3 5.82697e-10 0)
(3 7.70436e-08 0)
(3 1.96784e-07 0)
(3 6.40803e-06 0)
(3.00002 5.32685e-05 0)
(3.00008 6.54291e-06 0)
(3.00119 0.000562376 0)
(3.00569 0.0131023 0)
(3.08709 -0.157604 0)
(3.13741 0.660861 0)
(2.3323 1.05786 0)
(1.34596 0.915023 0)
(1.28418 0.883342 0)
(1.29351 0.841125 0)
(1.31331 0.824988 0)
(3 -5.1319e-17 0)
(3 7.30319e-17 0)
(3 1.26601e-16 0)
(3 1.13783e-15 0)
(3 9.54613e-15 0)
(3 8.2797e-14 0)
(3 3.64272e-13 0)
(3 4.74306e-12 0)
(3 4.56094e-11 0)
(3 9.59736e-11 0)
(3 3.15916e-09 0)
(3 2.3413e-08 0)
(3 2.00477e-07 0)
(3 1.56744e-06 0)
(3.00003 7.04465e-06 0)
(2.99996 8.31048e-05 0)
(2.9979 0.000801087 0)
(3.01612 0.00614055 0)
(2.9506 0.049204 0)
(3.31367 0.36582 0)
(2.9407 1.01089 0)
(1.71811 0.989312 0)
(1.35912 0.93557 0)
(1.33281 0.868088 0)
(1.34683 0.851588 0)
(3 -2.62325e-17 0)
(3 2.8372e-16 0)
(3 -2.48021e-16 0)
(3 -6.6166e-16 0)
(3 2.13191e-15 0)
(3 3.22309e-14 0)
(3 1.57882e-13 0)
(3 3.41854e-12 0)
(3 1.71663e-11 0)
(3 1.79997e-10 0)
(3 4.03299e-09 0)
(3 -3.23207e-09 0)
(3 1.05193e-07 0)
(3 7.9365e-07 0)
(3 8.86288e-06 0)
(3.00002 5.16554e-05 0)
(3.0001 4.22019e-05 0)
(3.00153 0.000556019 0)
(3.00637 0.0145942 0)
(3.10446 -0.170162 0)
(3.16802 0.719494 0)
(2.36743 1.06525 0)
(1.43638 0.945289 0)
(1.37684 0.914371 0)
(1.38818 0.865152 0)
(3 1.54106e-16 0)
(3 2.12395e-16 0)
(3 5.21797e-16 0)
(3 7.46272e-16 0)
(3 2.73495e-15 0)
(3 1.47477e-14 0)
(3 1.20012e-13 0)
(3 8.36684e-13 0)
(3 7.24393e-12 0)
(3 5.49756e-11 0)
(3 4.49815e-10 0)
(3 3.38109e-09 0)
(3 2.29351e-08 0)
(3 2.3855e-07 0)
(3 1.5775e-06 0)
(3.00004 1.46163e-05 0)
(2.99998 9.79309e-05 0)
(2.99777 0.000946644 0)
(3.01919 0.00696053 0)
(2.93918 0.0547907 0)
(3.34006 0.398599 0)
(2.97785 1.05077 0)
(1.80939 1.01762 0)
(1.44401 0.974219 0)
(1.42155 0.894177 0)
(3 5.61718e-18 0)
(3 -7.00581e-18 0)
(3 -1.51887e-16 0)
(3 -1.17408e-16 0)
(3 5.57614e-16 0)
(3 6.01756e-15 0)
(3 8.86766e-14 0)
(3 1.02671e-12 0)
(3 -2.89859e-13 0)
(3 3.81182e-11 0)
(3 3.47968e-11 0)
(3 1.96447e-09 0)
(3 1.32805e-09 0)
(3 1.68797e-07 0)
(3 7.78955e-08 0)
(3 8.40063e-06 0)
(3.00003 4.73971e-05 0)
(3.00007 6.94294e-05 0)
(3.00184 -0.00339753 0)
(3.00374 0.00952563 0)
(3.12668 -0.0889433 0)
(3.24552 0.72784 0)
(2.47962 1.07826 0)
(1.55409 0.963948 0)
(1.48194 0.942383 0)
(3 -1.02787e-16 0)
(3 -4.11174e-16 0)
(3 -6.18767e-16 0)
(3 -1.05556e-15 0)
(3 -8.54365e-16 0)
(3 1.58262e-15 0)
(3 2.06091e-14 0)
(3 1.2432e-13 0)
(3 4.67657e-13 0)
(3 8.77477e-12 0)
(3 4.83691e-11 0)
(3 5.53735e-10 0)
(3 4.0607e-09 0)
(3 3.45052e-08 0)
(3 2.67597e-07 0)
(3 1.76359e-06 0)
(3.00001 7.11027e-06 0)
(3.00006 0.000108528 0)
(2.99826 0.000969474 0)
(3.01472 0.00658926 0)
(2.95977 0.0551165 0)
(3.33338 0.38248 0)
(3.04747 1.03444 0)
(1.96608 1.04072 0)
(1.56005 0.986858 0)
(3 5.13189e-17 0)
(3 8.16967e-17 0)
(3 3.43042e-17 0)
(3 1.38788e-17 0)
(3 -1.20555e-15 0)
(3 2.35328e-15 0)
(3 1.29615e-15 0)
(3 8.16991e-14 0)
(3 5.24499e-13 0)
(3 -2.17517e-12 0)
(3 3.11853e-11 0)
(3 3.25992e-10 0)
(3 -4.92076e-10 0)
(3 1.14148e-08 0)
(3 6.05476e-08 0)
(3 5.90367e-07 0)
(3 4.71669e-06 0)
(3.00004 2.91928e-05 0)
(2.99998 -6.90455e-05 0)
(3.0021 -0.00559874 0)
(3.00275 0.010047 0)
(3.12907 0.0027855 0)
(3.32119 0.650721 0)
(2.6466 1.06595 0)
(1.71671 0.971442 0)
(3 -1.97522e-33 0)
(3 4.40633e-17 0)
(3 4.26404e-17 0)
(3 2.45359e-16 0)
(3 9.78565e-16 0)
(3 -9.10704e-16 0)
(3 2.53566e-15 0)
(3 1.40093e-14 0)
(3 8.61143e-14 0)
(3 1.12682e-12 0)
(3 8.73278e-12 0)
(3 4.11843e-11 0)
(3 6.34514e-10 0)
(3 4.00209e-09 0)
(3 2.29601e-08 0)
(3 3.39353e-07 0)
(3 -3.51381e-06 0)
(3 1.43438e-05 0)
(3.00011 8.12744e-05 0)
(2.99883 0.000794478 0)
(3.00887 0.00548706 0)
(2.98407 0.0475504 0)
(3.31833 0.358234 0)
(3.13531 0.960218 0)
(2.19979 1.04878 0)
(3 -1.02638e-16 0)
(3 -2.8124e-16 0)
(3 -1.66476e-16 0)
(3 -3.3164e-16 0)
(3 -5.58068e-16 0)
(3 -8.75987e-17 0)
(3 -1.98279e-15 0)
(3 6.36811e-15 0)
(3 7.54238e-14 0)
(3 2.74761e-13 0)
(3 6.04947e-12 0)
(3 3.1086e-11 0)
(3 2.61629e-11 0)
(3 7.36023e-10 0)
(3 2.54851e-09 0)
(3 2.24251e-08 0)
(3 1.92824e-08 0)
(3 -1.89597e-06 0)
(3.00001 1.74552e-05 0)
(3.00007 -0.000155839 0)
(3.00117 -0.000139257 0)
(3.00436 0.00861801 0)
(3.10465 0.0762714 0)
(3.46513 0.592961 0)
(2.93109 0.99976 0)
(3 -1.72324e-16 0)
(3 -5.82327e-17 0)
(3 -2.55767e-16 0)
(3 -2.17093e-16 0)
(3 -4.83827e-16 0)
(3 -7.28203e-16 0)
(3 -6.21206e-16 0)
(3 1.67476e-15 0)
(3 3.12898e-14 0)
(3 2.00875e-13 0)
(3 2.39275e-13 0)
(3 8.09588e-12 0)
(3 3.30211e-11 0)
(3 1.85635e-10 0)
(3 2.14295e-09 0)
(3 2.4626e-08 0)
(3 1.288e-07 0)
(3 1.28068e-06 0)
(3.00001 1.03184e-05 0)
(3 -3.45481e-05 0)
(2.99998 0.000774991 0)
(3.00204 -0.00274366 0)
(3.00876 0.0475044 0)
(3.23679 -0.31405 0)
(3.20922 0.899729 0)
(3 -6.04381e-17 0)
(3 1.53957e-16 0)
(3 2.56595e-16 0)
(3 2.56595e-16 0)
(3 2.21893e-16 0)
(3 4.20373e-16 0)
(3 5.61462e-16 0)
(3 1.30346e-15 0)
(3 4.17712e-15 0)
(3 6.27486e-14 0)
(3 -1.66971e-13 0)
(3 3.60253e-12 0)
(3 1.20465e-11 0)
(3 1.41281e-10 0)
(3 1.09711e-09 0)
(3 2.75815e-09 0)
(3 3.75333e-08 0)
(3 9.39234e-08 0)
(3.00001 1.86015e-06 0)
(2.99999 1.24884e-05 0)
(3.0001 1.02403e-05 0)
(3.00085 0.0010395 0)
(2.99929 0.00748738 0)
(2.91634 0.0693653 0)
(3.47646 0.483818 0)
(3 5.13189e-17 0)
(3 4.704e-17 0)
(3 1.02638e-16 0)
(3 5.12098e-17 0)
(3 3.78964e-17 0)
(3 4.0148e-16 0)
(3 6.58602e-16 0)
(3 1.19199e-15 0)
(3 1.96285e-15 0)
(3 1.70679e-14 0)
(3 8.53538e-14 0)
(3 6.82237e-13 0)
(3 5.60945e-12 0)
(3 1.05738e-11 0)
(3 3.42219e-10 0)
(3 1.45678e-09 0)
(3 1.75876e-08 0)
(3 7.7986e-08 0)
(3 1.16825e-06 0)
(2.99999 5.63957e-06 0)
(3.0001 5.91886e-05 0)
(2.99974 0.00043033 0)
(3.00319 0.00321167 0)
(2.99856 0.00188092 0)
(3.14594 0.0496671 0)
(3 1.53957e-16 0)
(3 1.53957e-16 0)
(3 -3.79206e-17 0)
(3 2.48221e-16 0)
(3 2.78245e-16 0)
(3 5.22068e-16 0)
(3 6.69499e-16 0)
(3 -5.7188e-16 0)
(3 2.91282e-15 0)
(3 -1.23328e-16 0)
(3 3.0204e-14 0)
(3 2.00451e-13 0)
(3 1.97854e-12 0)
(3 1.81078e-11 0)
(3 1.0746e-10 0)
(3 1.3423e-10 0)
(3 5.16424e-09 0)
(3 -3.95308e-09 0)
(3 2.01669e-07 0)
(3 3.80446e-07 0)
(3 1.94869e-05 0)
(3.0001 -0.000257887 0)
(3.00016 0.000987242 0)
(3.00514 0.00523121 0)
(2.9843 0.0465231 0)
(3 -1.02638e-16 0)
(3 -7.33118e-18 0)
(3 3.07415e-17 0)
(3 5.20453e-16 0)
(3 9.96151e-17 0)
(3 2.7019e-16 0)
(3 3.69882e-17 0)
(3 1.95359e-16 0)
(3 5.85311e-16 0)
(3 6.61635e-16 0)
(3 8.39854e-15 0)
(3 4.94492e-14 0)
(3 6.08317e-13 0)
(3 2.43713e-12 0)
(3 3.25597e-11 0)
(3 2.05158e-10 0)
(3 1.32971e-09 0)
(3 9.15272e-09 0)
(3 8.2428e-08 0)
(3 5.46761e-07 0)
(3.00001 8.6652e-07 0)
(2.99999 3.0044e-05 0)
(3.00021 -4.66145e-05 0)
(3.00008 0.00130401 0)
(3.0094 -0.0194393 0)
(3 5.13189e-17 0)
(3 5.50528e-17 0)
(3 4.60921e-17 0)
(3 6.03103e-17 0)
(3 -2.67924e-18 0)
(3 -9.56119e-17 0)
(3 -9.78361e-17 0)
(3 -8.8178e-17 0)
(3 1.22608e-16 0)
(3 -3.92058e-17 0)
(3 4.12749e-15 0)
(3 3.80028e-15 0)
(3 -1.65002e-13 0)
(3 8.94995e-13 0)
(3 -1.63135e-12 0)
(3 6.69615e-11 0)
(3 5.03589e-10 0)
(3 4.95736e-09 0)
(3 3.2702e-08 0)
(3 1.24859e-08 0)
(3 9.2827e-08 0)
(3 5.91777e-06 0)
(2.99992 5.79012e-05 0)
(3.00068 0.000337396 0)
(2.99869 0.00285417 0)
(3 1.13975e-16 0)
(3 3.05557e-16 0)
(3 3.96765e-16 0)
(3 1.02635e-16 0)
(3 1.02638e-16 0)
(3 -2.05274e-16 0)
(3 -3.59264e-16 0)
(3 -5.53595e-16 0)
(3 -7.41549e-16 0)
(3 -1.19602e-15 0)
(3 4.82918e-17 0)
(3 2.41239e-15 0)
(3 3.50981e-14 0)
(3 2.47664e-13 0)
(3 2.03506e-12 0)
(3 1.44287e-11 0)
(3 1.4264e-10 0)
(3 6.76892e-10 0)
(3 9.21372e-09 0)
(3 5.01899e-08 0)
(3 3.3828e-07 0)
(3 2.98315e-06 0)
(3.00001 1.52185e-06 0)
(3.00006 4.3982e-05 0)
(3.00039 0.000761715 0)
(3 -5.13189e-17 0)
(3 -2.56595e-16 0)
(3 -2.56595e-16 0)
(3 -3.07913e-16 0)
(3 -2.56595e-16 0)
(3 -2.05276e-16 0)
(3 -2.05276e-16 0)
(3 -2.72162e-16 0)
(3 6.60029e-17 0)
(3 3.38583e-16 0)
(3 9.37062e-16 0)
(3 1.75537e-15 0)
(3 9.29351e-15 0)
(3 1.02949e-13 0)
(3 8.10207e-13 0)
(3 5.50583e-12 0)
(3 6.1432e-11 0)
(3 2.0683e-10 0)
(3 2.19341e-09 0)
(3 1.10517e-08 0)
(3 7.93453e-08 0)
(3 3.26595e-07 0)
(3.00001 4.53106e-06 0)
(2.99997 3.19466e-05 0)
(3.00015 -0.000266847 0)
(3 2.06901e-17 0)
(3 -1.258e-16 0)
(3 1.02436e-16 0)
(3 3.07676e-16 0)
(3 4.18814e-16 0)
(3 3.62342e-16 0)
(3 4.61823e-16 0)
(3 4.61857e-16 0)
(3 5.04848e-16 0)
(3 6.11901e-16 0)
(3 6.1025e-16 0)
(3 1.9236e-15 0)
(3 -1.77277e-14 0)
(3 3.89104e-14 0)
(3 1.00454e-13 0)
(3 1.47484e-12 0)
(3 1.02615e-11 0)
(3 9.34275e-11 0)
(3 4.56823e-10 0)
(3 5.97015e-09 0)
(3 2.21686e-08 0)
(3 2.84884e-07 0)
(3 1.94817e-06 0)
(3.00001 5.28636e-08 0)
(3.00005 5.51627e-05 0)
(3 1.53957e-16 0)
(3 2.90643e-16 0)
(3 1.82139e-16 0)
(3 1.02638e-16 0)
(3 1.53957e-16 0)
(3 7.09957e-17 0)
(3 2.48738e-16 0)
(3 2.71887e-16 0)
(3 4.19296e-16 0)
(3 3.07226e-16 0)
(3 4.55533e-16 0)
(3 1.10059e-16 0)
(3 9.85765e-16 0)
(3 8.21742e-15 0)
(3 7.39307e-14 0)
(3 3.07275e-13 0)
(3 2.06225e-12 0)
(3 1.49533e-11 0)
(3 1.76253e-10 0)
(3 6.82463e-10 0)
(3 9.74998e-09 0)
(3 4.441e-08 0)
(3 4.03342e-07 0)
(3 2.76971e-06 0)
(3.00001 8.81638e-06 0)
(3 -1.02638e-16 0)
(3 -3.59232e-16 0)
(3 -3.77615e-16 0)
(3 -7.69784e-16 0)
(3 -7.69784e-16 0)
(3 -7.18448e-16 0)
(3 -6.15733e-16 0)
(3 -6.15777e-16 0)
(3 -6.15803e-16 0)
(3 -4.87704e-16 0)
(3 -5.06544e-16 0)
(3 -3.72506e-16 0)
(3 -9.49599e-16 0)
(3 1.89676e-15 0)
(3 8.98869e-15 0)
(3 9.12756e-14 0)
(3 -1.52909e-12 0)
(3 6.33557e-12 0)
(3 3.71477e-11 0)
(3 1.9349e-10 0)
(3 2.60964e-09 0)
(3 1.2981e-08 0)
(3 8.46484e-08 0)
(3 -3.50811e-08 0)
(3 3.80241e-06 0)
(3 -1.02638e-16 0)
(3 -1.53957e-16 0)
(3 -1.53957e-16 0)
(3 -5.13189e-17 0)
(3 -5.13189e-17 0)
(3 -1.02638e-16 0)
(3 -5.13189e-17 0)
(3 -5.64508e-16 0)
(3 -7.18465e-16 0)
(3 -8.72421e-16 0)
(3 -9.74972e-16 0)
(3 -8.72249e-16 0)
(3 -7.50065e-16 0)
(3 -6.41638e-16 0)
(3 1.60829e-15 0)
(3 2.32793e-14 0)
(3 9.16797e-14 0)
(3 1.0715e-12 0)
(3 1.05688e-11 0)
(3 5.51306e-11 0)
(3 -5.07411e-12 0)
(3 3.08456e-09 0)
(3 1.18638e-08 0)
(3 1.36165e-07 0)
(3 5.87575e-07 0)
(3 5.13189e-17 0)
(3 -5.13189e-17 0)
(3 5.13189e-17 0)
(3 9.19145e-18 0)
(3 9.34464e-17 0)
(3 -1.02638e-16 0)
(3 -1.02638e-16 0)
(3 -1.02638e-16 0)
(3 -1.02638e-16 0)
(3 -3.07913e-16 0)
(3 -3.50331e-16 0)
(3 -3.47166e-16 0)
(3 -3.85148e-16 0)
(3 1.12908e-16 0)
(3 -1.1452e-15 0)
(3 2.67717e-15 0)
(3 1.0353e-15 0)
(3 1.33218e-14 0)
(3 3.4395e-12 0)
(3 -1.53045e-11 0)
(3 1.62566e-10 0)
(3 4.1987e-10 0)
(3 4.0234e-09 0)
(3 8.42493e-09 0)
(3 1.56456e-07 0)
(3 5.13189e-17 0)
(3 1.55253e-16 0)
(3 5.00227e-17 0)
(3 6.51061e-17 0)
(3 3.75317e-17 0)
(3 -2.56595e-16 0)
(3 -5.13189e-16 0)
(3 -6.67146e-16 0)
(3 -8.72421e-16 0)
(3 -8.72421e-16 0)
(3 -8.72421e-16 0)
(3 -9.2374e-16 0)
(3 -9.2374e-16 0)
(3 -9.27786e-16 0)
(3 -1.05099e-15 0)
(3 -1.46845e-16 0)
(3 3.3713e-15 0)
(3 -3.48642e-14 0)
(3 9.30169e-13 0)
(3 -2.74349e-12 0)
(3 1.88211e-11 0)
(3 -1.43034e-11 0)
(3 -3.5071e-10 0)
(3 1.06359e-08 0)
(3 2.13754e-08 0)
(3 5.13189e-17 0)
(3 2.05276e-16 0)
(3 3.07913e-16 0)
(3 3.07913e-16 0)
(3 4.10551e-16 0)
(3 4.6187e-16 0)
(3 4.6187e-16 0)
(3 4.56793e-16 0)
(3 5.76177e-16 0)
(3 2.44723e-16 0)
(3 2.99583e-16 0)
(3 -3.2029e-16 0)
(3 -6.28599e-16 0)
(3 -6.56523e-16 0)
(3 -1.02586e-15 0)
(3 -9.01346e-16 0)
(3 -5.28028e-15 0)
(3 -2.74532e-14 0)
(3 3.34947e-13 0)
(3 -5.7351e-13 0)
(3 6.67269e-12 0)
(3 -2.47523e-10 0)
(3 -7.20162e-10 0)
(3 3.11114e-09 0)
(3 -1.14866e-08 0)
(3 -5.13189e-17 0)
(3 -1.02638e-16 0)
(3 -3.07913e-16 0)
(3 -3.74676e-16 0)
(3 -4.49955e-16 0)
(3 -5.28839e-16 0)
(3 -2.92263e-16 0)
(3 -1.09732e-16 0)
(3 -5.13189e-17 0)
(3 -1.53957e-16 0)
(3 -2.05276e-16 0)
(3 -3.59232e-16 0)
(3 -3.59232e-16 0)
(3 -5.63228e-16 0)
(3 -8.3369e-16 0)
(3 -1.00995e-15 0)
(3 9.53495e-16 0)
(3 1.18084e-14 0)
(3 5.3371e-14 0)
(3 3.78398e-13 0)
(3 2.2553e-12 0)
(3 3.47506e-11 0)
(3 2.07309e-10 0)
(3 1.31368e-09 0)
(3 1.25521e-09 0)
(3 -1.02638e-16 0)
(3 -2.56595e-16 0)
(3 -5.64508e-16 0)
(3 -7.18465e-16 0)
(3 -8.72421e-16 0)
(3 -9.75059e-16 0)
(3 -9.11147e-16 0)
(3 -1.15294e-15 0)
(3 -1.10509e-15 0)
(3 -9.2374e-16 0)
(3 -6.15827e-16 0)
(3 -2.56595e-16 0)
(3 4.93399e-17 0)
(3 6.09311e-17 0)
(3 4.67736e-16 0)
(3 3.42745e-16 0)
(3 2.69772e-16 0)
(3 6.67315e-16 0)
(3 1.81542e-14 0)
(3 -9.96916e-14 0)
(3 5.75187e-14 0)
(3 -5.90697e-12 0)
(3 -2.29057e-11 0)
(3 1.33656e-10 0)
(3 -1.13422e-09 0)
(1.22978 1.08878 0)
(0.587986 0.657687 0)
(-0.58345 0.040435 0)
(-0.430626 -0.161344 0)
(-0.594257 -0.168746 0)
(-0.461132 -0.0944247 0)
(-0.676533 0.085536 0)
(-0.991993 0.141855 0)
(-1.1742 0.142446 0)
(-1.25499 0.0975697 0)
(-1.27465 0.0604051 0)
(-1.26673 0.0279534 0)
(-1.2636 0.0273862 0)
(-1.28637 0.0172724 0)
(-1.36945 -0.0028639 0)
(-1.43534 -0.0217733 0)
(-1.47753 -0.0212506 0)
(-1.49655 -0.0175391 0)
(-1.50052 -0.0150495 0)
(-1.49506 -0.0122217 0)
(-1.49299 -0.0100968 0)
(-1.49175 -0.0095627 0)
(-1.49617 -0.00644227 0)
(-1.49993 -0.00581253 0)
(-1.50994 -0.00232522 0)
(-1.51719 0.000332896 0)
(-1.52198 0.00451792 0)
(-1.52556 0.00478483 0)
(-1.52634 0.00468366 0)
(-1.52488 0.0015929 0)
(-1.51481 0.00323253 0)
(-1.48886 0.00268433 0)
(-1.46502 0.00709645 0)
(-1.40616 0.00930797 0)
(-1.33432 0.00464818 0)
(-1.26135 -0.00318079 0)
(-1.18659 -0.0176433 0)
(-1.10648 -0.0321697 0)
(-1.00885 -0.0458809 0)
(-0.918935 -0.0549665 0)
(-0.83291 -0.046765 0)
(-0.736705 -0.0362385 0)
(-0.638401 -0.0276177 0)
(-0.54146 -0.00831558 0)
(-0.443412 -0.000323759 0)
(-0.360577 0.0138044 0)
(-0.29679 0.0101992 0)
(-0.200561 -0.0140788 0)
(-0.112135 -0.0171467 0)
(-0.0303214 -0.0307525 0)
(0.0678837 -0.03022 0)
(0.140392 -0.0248501 0)
(0.215461 -0.0272882 0)
(0.285333 -0.0279566 0)
(0.351129 -0.0284324 0)
(0.411991 -0.0279984 0)
(0.469626 -0.0272321 0)
(0.524427 -0.0256298 0)
(0.575411 -0.0234709 0)
(0.622743 -0.021843 0)
(0.667152 -0.020465 0)
(0.709048 -0.019017 0)
(0.748853 -0.0175645 0)
(0.786236 -0.0162286 0)
(0.821901 -0.0151228 0)
(0.855517 -0.0141978 0)
(0.887998 -0.0131517 0)
(0.918553 -0.011989 0)
(0.948044 -0.0110339 0)
(0.975847 -0.0101608 0)
(1.00271 -0.00944314 0)
(1.02859 -0.00877459 0)
(1.05354 -0.00827564 0)
(1.07794 -0.00785866 0)
(1.10134 -0.00748292 0)
(1.12427 -0.00702197 0)
(1.14594 -0.00658307 0)
(1.16709 -0.00610791 0)
(1.18707 -0.00569855 0)
(1.20672 -0.00524496 0)
(1.22544 -0.00482489 0)
(1.24389 -0.00435369 0)
(1.26139 -0.00394155 0)
(1.27866 -0.00350568 0)
(1.29493 -0.00316748 0)
(1.31102 -0.00278059 0)
(1.32612 -0.00251787 0)
(1.34107 -0.00218897 0)
(1.35496 -0.00200405 0)
(1.36875 -0.0017185 0)
(1.38127 -0.00159397 0)
(1.3937 -0.00133875 0)
(1.40497 -0.00131296 0)
(1.4162 -0.0011372 0)
(1.42728 -0.00128268 0)
(1.43831 -0.00110955 0)
(1.44971 -0.0014115 0)
(1.46112 -0.00105919 0)
(1.4734 -0.00125357 0)
(1.48752 0.000164896 0)
(1.2617 0.990299 0)
(1.21811 0.767218 0)
(0.755557 0.59762 0)
(0.673709 0.296671 0)
(0.165748 0.174806 0)
(-0.144894 0.129703 0)
(-0.34532 0.225354 0)
(-0.767219 0.144943 0)
(-0.893044 0.0361022 0)
(-0.940716 -0.0108084 0)
(-0.876719 -0.0477737 0)
(-0.845753 -0.0388924 0)
(-0.838077 -0.0295009 0)
(-0.897772 -0.0146253 0)
(-0.983063 -0.00784052 0)
(-1.05466 0.0382492 0)
(-1.09835 0.0583609 0)
(-1.11279 0.050441 0)
(-1.11166 0.0228635 0)
(-1.10392 0.0152944 0)
(-1.1003 0.00927309 0)
(-1.0987 0.0081922 0)
(-1.10252 0.00952459 0)
(-1.10511 0.00651711 0)
(-1.11705 0.00551979 0)
(-1.12639 -0.00123009 0)
(-1.13859 -0.000193673 0)
(-1.146 -0.00565109 0)
(-1.14946 -0.00276836 0)
(-1.14494 -0.00371906 0)
(-1.13272 -0.00154505 0)
(-1.09813 -0.00526083 0)
(-1.06533 -0.00779469 0)
(-1.01386 -0.0146009 0)
(-0.93001 -0.0284464 0)
(-0.848336 -0.0402409 0)
(-0.766653 -0.0406623 0)
(-0.678 -0.0216082 0)
(-0.555322 -0.0547537 0)
(-0.464463 -0.0375819 0)
(-0.37553 -0.0416379 0)
(-0.241498 -0.0738737 0)
(-0.120887 -0.0987895 0)
(0.0189011 -0.123486 0)
(0.166438 -0.13606 0)
(0.296425 -0.129004 0)
(0.433569 -0.137633 0)
(0.54859 -0.137466 0)
(0.628082 -0.125873 0)
(0.703618 -0.118861 0)
(0.763898 -0.113109 0)
(0.816147 -0.0996451 0)
(0.867654 -0.0938615 0)
(0.913025 -0.086312 0)
(0.954452 -0.0786795 0)
(0.988994 -0.0710306 0)
(1.02199 -0.0654452 0)
(1.05315 -0.0606488 0)
(1.08232 -0.0550441 0)
(1.11013 -0.0500069 0)
(1.13691 -0.0458039 0)
(1.16221 -0.042158 0)
(1.18714 -0.0388266 0)
(1.21083 -0.0355943 0)
(1.23406 -0.0324935 0)
(1.25611 -0.0296533 0)
(1.27771 -0.0273958 0)
(1.29817 -0.0252174 0)
(1.31835 -0.0232279 0)
(1.33738 -0.0212668 0)
(1.35593 -0.0197324 0)
(1.37367 -0.0182682 0)
(1.39102 -0.0169713 0)
(1.40798 -0.0155417 0)
(1.42458 -0.0144027 0)
(1.44102 -0.0132547 0)
(1.45664 -0.0122276 0)
(1.47192 -0.0111497 0)
(1.48642 -0.0102989 0)
(1.50065 -0.00943399 0)
(1.51433 -0.00874386 0)
(1.52784 -0.00795654 0)
(1.54084 -0.00731275 0)
(1.55373 -0.00657192 0)
(1.56608 -0.00598484 0)
(1.57838 -0.00531254 0)
(1.5901 -0.0047786 0)
(1.60178 -0.00413942 0)