/*--------------------------------*- C++ -*----------------------------------*\
| =========                 |                                                 |
| \\      /  F ield         | OpenFOAM: The Open Source CFD Toolbox           |
|  \\    /   O peration     | Version:  v2106                                 |
|   \\  /    A nd           | Website:  www.openfoam.com                      |
|    \\/     M anipulation  |                                                 |
\*---------------------------------------------------------------------------*/
FoamFile
{
    version     2.0;
    format      ascii;
    arch        "LSB;label=32;scalar=64";
    class       volScalarField;
    location    "8";
    object      p;
}
// * * * * * * * * * * * * * * * * * * * * * * * * * * * * * * * * * * * * * //

dimensions      [1 -1 -2 0 0 0 0];

internalField   nonuniform List<scalar> 
5250
(
1
1
1
1
1
1
1
1
1.00001
1.00007
1.00061
1.00544
1.04702
1.38747
2.94298
8.37803
13.3826
10.8217
11.4554
11.674
11.7533
11.9118
12.0203
12.1043
12.1517
1
1
1
1
1
1
1
1
1.00001
1.00007
1.00059
1.00529
1.04548
1.37818
2.90645
8.26721
13.4091
10.7973
11.4498
11.6661
11.7436
11.8982
12.0058
12.0912
12.1378
1
1
1
1
1
1
1
1
1.00001
1.00006
1.00055
1.005
1.04205
1.35684
2.82103
7.99649
13.4258
10.7439
11.4057
11.6262
11.7032
11.8502
11.9516
12.0293
12.072
1
1
1
1
1
1
1
1
1.00001
1.00006
1.00049
1.00475
1.03751
1.32692
2.69775
7.62521
13.4214
10.6957
11.3446
11.5681
11.635
11.7809
11.8651
11.9456
11.9798
1
1
1
1
1
1
1
1
1
1.00005
1.00041
1.00411
1.03193
1.28987
2.54275
7.14421
13.3341
10.6499
11.2527
11.4808
11.5418
11.6661
11.7569
11.8143
11.8591
1
1
1
1
1
1
1
1
1
1.00004
1.00031
1.00289
1.02554
1.24806
2.36132
6.58973
13.2001
10.6335
11.1479
11.3835
11.4386
11.5518
11.6068
11.6674
11.675
1
1
1
1
1
1
1
1
1
1.00003
1.00024
1.0024
1.02068
1.21001
2.19558
5.9885
12.753
10.6586
11.0038
11.2475
11.2919
11.3723
11.3931
11.4147
11.4557
1
1
1
1
1
1
1
1
1
1.00003
1.00017
1.00226
1.01682
1.17454
2.03554
5.39123
12.0845
10.6261
10.8415
11.0359
11.1424
11.1522
11.1484
11.1628
11.0721
1
1
1
1
1
1
1
1
1
1.00003
1.00013
1.00182
1.01313
1.13969
1.87104
4.79066
11.2513
10.6295
10.6865
10.8435
10.9108
10.871
10.7489
10.6881
10.511
1
1
1
1
1
1
1
1
1
1.00002
1.0001
1.00148
1.00998
1.11148
1.71549
4.21404
10.2682
10.6636
10.5371
10.5015
10.5958
10.5837
10.2983
10.3394
9.45248
1
1
1
1
1
1
1
1
1
1.00001
1.00013
1.00104
1.00896
1.07969
1.55889
3.62918
9.15383
10.7054
10.3169
10.2158
10.2224
10.1529
9.66262
9.30171
6.86116
1
1
1
1
1
1
1
1
1
1.00001
1.00007
1.00062
1.00608
1.04826
1.40962
3.04768
7.90971
10.776
9.9642
9.91548
9.8703
9.74127
9.06342
8.43774
6.50668
1
1
1
1
1
1
1
1
1
1.00001
1.00003
1.00038
1.00341
1.02933
1.2735
2.46709
6.63694
10.7837
9.69746
9.68751
9.5896
9.38655
8.75645
7.9795
6.62487
1
1
1
1
1
1
1
1
1
1
1.00003
1.00022
1.00227
1.01852
1.18927
2.09891
5.51442
10.2462
9.60402
9.48753
9.33114
9.07179
8.48029
7.74577
6.61098
1
1
1
1
1
1
1
1
1
1
1.00002
1.00011
1.0017
1.01116
1.12415
1.76534
4.44951
9.10292
9.5972
9.35548
9.06269
8.74372
8.22016
7.5763
6.60363
1
1
1
1
1
1
1
1
1
1
1.00001
1.0001
1.00095
1.00791
1.07207
1.51109
3.47089
7.69419
9.51554
9.10235
8.78958
8.47401
8.02032
7.45826
6.6237
1
1
1
1
1
1
1
1
1
1
1
1.00006
1.0003
1.00402
1.0291
1.28742
2.52729
6.27967
9.39721
8.88072
8.58581
8.30448
7.87852
7.34234
6.60505
1
1
1
1
1
1
1
1
1
1
1
1.00004
1.00019
1.00251
1.0175
1.17903
2.03191
4.93416
8.73137
8.89582
8.5414
8.20377
7.77221
7.26002
6.59321
1
1
1
1
1
1
1
1
1
1
1
1.00002
1.00014
1.00125
1.01028
1.09183
1.62297
3.78543
7.49546
8.83573
8.43428
8.03213
7.61487
7.1502
6.57076
1
1
1
1
1
1
1
1
1
1
1
1
1.00008
1.00033
1.0054
1.0348
1.36226
2.74752
6.0366
8.57634
8.20016
7.85914
7.49255
7.07286
6.56074
1
1
1
1
1
1
1
1
1
1
1
1
1.00003
1.00029
1.00246
1.02019
1.16782
2.00319
4.57088
7.80656
8.15112
7.82946
7.44909
7.0379
6.56551
1
1
1
1
1
1
1
1
1
1
1
1
0.999999
1.00017
1.00044
1.01025
1.05281
1.59813
3.3991
6.52688
8.06832
7.74907
7.39938
7.01293
6.57417
1
1
1
1
1
1
1
1
1
1
1
1
1.00001
1.00006
1.00044
1.00379
1.02958
1.23844
2.29044
5.06708
7.61071
7.63886
7.36441
6.99631
6.58059
1
1
1
1
1
1
1
1
1
1
1
1
1
1.00001
1.00026
1.00051
1.01431
1.06554
1.77574
3.72699
6.56653
7.67404
7.37049
7.02167
6.62219
1
1
1
1
1
1
1
1
1
1
1
1
1
1.00001
1.00008
1.0006
1.0052
1.03892
1.31569
2.58843
5.1946
7.34205
7.27362
6.99583
6.63139
1
1
1
1
1
1
1
1
1
1
1
1
1
1
1.00001
1.0003
1.00056
1.0159
1.07269
1.83986
3.82473
6.40193
7.29497
7.00898
6.66964
1
1
1
1
1
1
1
1
1
1
1
1
1
1
1.00001
1.0001
1.0007
1.00599
1.04289
1.35036
2.6551
5.08358
6.99312
6.91815
6.6558
1
1
1
1
1
1
1
1
1
1
1
1
1
1
1
1.00007
1.00039
1.00038
1.01634
1.07295
1.83415
3.74948
6.12268
6.96013
6.67008
1
1
1
1
1
1
1
1
1
1
1
1
1
1
1
1.00001
1.0001
1.00069
1.00592
1.04044
1.33972
2.5636
4.80265
6.59921
6.62931
1
1
1
1
1
1
1
1
1
1
1
1
1
1
1
1
1.00005
1.00025
0.999756
1.01489
1.07157
1.76097
3.45848
5.62288
6.57742
1
1
1
1
1
1
1
1
1
1
1
1
1
1
1
1
1.00001
1.00009
1.00053
1.00508
1.03411
1.29955
2.36202
4.36352
6.11209
1
1
1
1
1
1
1
1
1
1
1
1
1
1
1
1
1
0.999993
0.999882
0.998428
1.0102
1.0544
1.63588
3.05287
5.12176
1
1
1
1
1
1
1
1
1
1
1
1
1
1
1
1
1
1.00001
1.00006
1.00044
1.00403
1.02725
1.22902
2.1673
3.93911
1
1
1
1
1
1
1
1
1
1
1
1
1
1
1
1
1
1
1.00003
1.0001
1.00024
1.00642
1.0476
1.41117
2.59879
1
1
1
1
1
1
1
1
1
1
1
1
1
1
1
1
1
1
1
1.00006
1.00034
1.00281
1.02464
1.03441
1.69189
1
1
1
1
1
1
1
1
1
1
1
1
1
1
1
1
1
1
1
1.00001
1.00007
1.0005
1.00544
1.0329
1.27552
1
1
1
1
1
1
1
1
1
1
1
1
1
1
1
1
1
1
1
1
1.00002
1.00019
1.00109
1.0081
1.0542
1
1
1
1
1
1
1
1
1
1
1
1
1
1
1
1
1
1
1
1
1.00001
0.999997
1.00045
1.00272
1.01764
1
1
1
1
1
1
1
1
1
1
1
1
1
1
1
1
1
1
1
1
1
1.00001
1.00014
1.0002
1.00547
1
1
1
1
1
1
1
1
1
1
1
1
1
1
1
1
1
1
1
1
1
1
1.00003
1.00016
1.00119
1
1
1
1
1
1
1
1
1
1
1
1
1
1
1
1
1
1
1
1
1
1
0.999999
0.999998
0.999688
1
1
1
1
1
1
1
1
1
1
1
1
1
1
1
1
1
1
1
1
1
1
1
1.00001
1.00003
1
1
1
1
1
1
1
1
1
1
1
1
1
1
1
1
1
1
1
1
1
1
1
1
1
1
1
1
1
1
1
1
1
1
1
1
1
1
1
1
1
1
1
1
1
1
1
1
1.00001
1.00002
1
1
1
1
1
1
1
1
1
1
1
1
1
1
1
1
1
1
1
1
1
1
1
1
1
1
1
1
1
1
1
1
1
1
1
1
1
1
1
1
1
1
1
1
1
1
1
1
1
1
1
1
1
1
1
1
1
1
1
1
1
1
1
1
1
1
1
1
1
1
1
1
1
1
1
1
1
1
1
1
1
1
1
1
1
1
1
1
1
1
1
1
1
1
1
1
1
1
1
1
1
1
1
1
1
1
1
1
1
1
1
1
1
1
1
1
1
1
1
1
1
1
1
1
1
1
1
1
1
1
1
1
1
1
1
1
1
1
1
1
1
1
1
1
1
1
1
1
1
1
2.65823
2.90418
3.81853
3.34218
3.71956
3.65521
3.45647
2.90455
2.59128
2.54465
2.53913
2.57248
2.58179
2.5593
2.46992
2.32277
2.22937
2.19737
2.19345
2.1982
2.19971
2.19977
2.1944
2.18841
2.17507
2.1662
2.16206
2.1666
2.17578
2.20278
2.23836
2.29897
2.39188
2.50039
2.61534
2.75622
2.90435
3.09261
3.25529
3.40731
3.5967
3.77277
3.9814
4.17065
4.32146
4.44228
4.56488
4.67879
4.74896
4.82691
4.88253
4.90715
4.9262
4.936
4.93276
4.92233
4.90187
4.87576
4.84504
4.80977
4.7717
4.73151
4.68972
4.64598
4.60091
4.55456
4.50746
4.45986
4.41215
4.36493
4.31834
4.27214
4.22665
4.18161
4.13717
4.09325
4.04986
4.00687
3.96437
3.92227
3.88068
3.83958
3.79903
3.75882
3.71906
3.67934
3.63994
3.60037
3.56104
3.52136
3.48185
3.4418
3.40192
3.36134
3.32102
3.27939
3.23778
3.19322
3.14897
3.12305
4.06314
3.87007
3.50032
3.45514
3.94522
3.79687
3.56625
2.84018
2.45189
2.39614
2.4719
2.55927
2.56997
2.51547
2.40736
2.30022
2.23226
2.20292
2.20259
2.20692
2.20614
2.20825
2.20241
2.19792
2.18554
2.17182
2.15944
2.16628
2.17575
2.20508
2.24335
2.29718
2.37899
2.47528
2.57949
2.72516
2.87026
3.07234
3.26697
3.42959
3.61467
3.78309
3.97439
4.16271
4.29414
4.40377
4.53793
4.65487
4.7346
4.81397
4.8705
4.90076
4.92015
4.92956
4.92629
4.91543
4.89532
4.86855
4.83775
4.80285
4.76519
4.72604
4.68538
4.64217
4.59693
4.55045
4.50348
4.45629
4.409
4.36216
4.31592
4.26991
4.22452
4.17956
4.13512
4.09125
4.04797
4.00505
3.9626
3.92055
3.87901
3.83796
3.79752
3.75743
3.71777
3.67817
3.63881
3.59938
3.56011
3.52045
3.48086
3.4408
3.40077
3.36028
3.31979
3.2786
3.23659
3.19162
3.14483
3.11764
4.88175
4.21465
3.92693
3.76946
3.81057
3.6707
3.24383
2.64973
2.46073
2.45741
2.55285
2.58169
2.59656
2.57409
2.5291
2.37062
2.20263
2.1623
2.16538
2.19489
2.20032
2.20324
2.19358
2.18735
2.16782
2.16469
2.15717
2.16323
2.17159
2.19403
2.22544
2.28327
2.37861
2.49792
2.60305
2.74607
2.87489
3.0542
3.22145
3.34891
3.54014
3.72293
3.93514
4.13534
4.29026
4.40187
4.50822
4.62761
4.70306
4.77637
4.83467
4.86948
4.88805
4.89924
4.89964
4.89185
4.87453
4.84977
4.82095
4.78859
4.75234
4.71372
4.67319
4.63088
4.58701
4.54205
4.49599
4.44892
4.40207
4.35596
4.31047
4.2654
4.22069
4.17618
4.1319
4.08786
4.04439
4.00137
3.95895
3.91695
3.87558
3.83478
3.79459
3.75482
3.71537
3.67598
3.63672
3.59732
3.55792
3.51833
3.47865
3.4387
3.39857
3.35826
3.31765
3.27657
3.23432
3.18888
3.13987
3.11066
5.29536
4.43975
4.04463
3.8194
3.80609
3.68833
3.32038
2.85804
2.60557
2.49202
2.50571
2.56197
2.57019
2.51338
2.38232
2.23447
2.18975
2.19261
2.19757
2.21695
2.20833
2.21663
2.20308
2.20573
2.18699
2.18055
2.14907
2.15583
2.16323
2.19424
2.23152
2.27548
2.35106
2.444
2.53683
2.68403
2.82748
3.01255
3.20255
3.36022
3.515
3.69372
3.84408
4.03753
4.21389
4.32197
4.43159
4.55247
4.65444
4.73112
4.79002
4.82415
4.85774
4.8686
4.87033
4.86367
4.85081
4.82744
4.79933
4.76846
4.7339
4.6974
4.65934
4.6186
4.57487
4.52983
4.48393
4.43775
4.39233
4.34778
4.30371
4.25967
4.21549
4.17111
4.12662
4.08249
4.03897
3.99596
3.9536
3.91173
3.87049
3.82998
3.7901
3.75072
3.71154
3.67243
3.63331
3.59415
3.55484
3.51532
3.47548
3.4354
3.395
3.3546
3.31398
3.27315
3.23113
3.18557
3.13476
3.103
5.49437
4.69162
4.17494
3.92223
3.84098
3.73092
3.35231
2.87239
2.59581
2.48586
2.51451
2.57491
2.5712
2.52816
2.46203
2.33891
2.24593
2.18855
2.17558
2.19715
2.2011
2.20506
2.19255
2.18944
2.16565
2.15874
2.15027
2.1644
2.16482
2.18229
2.20543
2.26272
2.34317
2.43998
2.53806
2.64732
2.78634
2.93309
3.09079
3.2525
3.42357
3.59951
3.7574
3.94176
4.10544
4.23078
4.353
4.46707
4.57467
4.66011
4.72669
4.77201
4.79744
4.81291
4.8246
4.81539
4.80657
4.79141
4.76731
4.7407
4.7105
4.67505
4.63688
4.59621
4.55434
4.51218
4.46926
4.42487
4.38031
4.33704
4.29447
4.2517
4.20847
4.16484
4.12051
4.07591
4.03171
3.98856
3.94644
3.90497
3.86415
3.8241
3.78473
3.74579
3.70698
3.6682
3.62927
3.59012
3.55065
3.511
3.47109
3.43099
3.39066
3.35035
3.30983
3.26902
3.22702
3.18122
3.12914
3.09533
5.65784
4.89223
4.37126
4.04527
3.92935
3.76279
3.47802
3.05242
2.73426
2.58476
2.56183
2.58357
2.5731
2.51948
2.42033
2.29113
2.21565
2.19024
2.19307
2.21356
2.20795
2.21458
2.20001
2.20407
2.18055
2.18101
2.15409
2.16056
2.16846
2.19319
2.22254
2.25724
2.30882
2.36503
2.44328
2.51631
2.62617
2.74005
2.89763
3.0778
3.26842
3.44787
3.62708
3.79797
3.96642
4.12579
4.2462
4.33992
4.44886
4.55527
4.6454
4.70803
4.74632
4.75263
4.76127
4.76112
4.76148
4.75472
4.736
4.70608
4.67899
4.64836
4.61354
4.57663
4.53712
4.49546
4.45182
4.40834
4.36666
4.32575
4.28495
4.24366
4.20138
4.15786
4.11317
4.06814
4.0239
3.98102
3.93914
3.89796
3.85751
3.81793
3.77907
3.74059
3.70208
3.66342
3.6245
3.58534
3.54587
3.5062
3.46625
3.42605
3.3856
3.34514
3.30449
3.26363
3.22179
3.17621
3.12354
3.08832
5.77178
5.0521
4.52817
4.21136
4.02398
3.84484
3.58586
3.25913
2.92637
2.70998
2.61065
2.5892
2.57815
2.54454
2.4755
2.35878
2.26803
2.21357
2.18903
2.19547
2.199
2.20464
2.19611
2.19358
2.17645
2.17719
2.16545
2.1957
2.21735
2.23778
2.25379
2.2824
2.29894
2.31089
2.35429
2.40799
2.48021
2.55553
2.67602
2.80341
2.94505
3.11274
3.29681
3.5063
3.7366
3.97366
4.1399
4.24383
4.34481
4.42015
4.52061
4.61011
4.67848
4.70346
4.69321
4.69993
4.70625
4.69874
4.69188
4.67343
4.64677
4.62047
4.5866
4.54998
4.51135
4.47194
4.4327
4.39287
4.35283
4.31312
4.27318
4.23244
4.19058
4.14761
4.10363
4.05918
4.01545
3.973
3.93167
3.89107
3.85118
3.81196
3.77329
3.73485
3.69636
3.65768
3.61875
3.57957
3.54007
3.50027
3.46013
3.41978
3.37931
3.33885
3.29833
3.25753
3.21572
3.17005
3.11676
3.0806
5.85374
5.19132
4.66909
4.35879
4.12219
3.95865
3.72125
3.42589
3.12942
2.87569
2.70251
2.63597
2.60925
2.5706
2.51954
2.40899
2.296
2.2141
2.18331
2.18782
2.20585
2.22017
2.20865
2.20614
2.19298
2.20754
2.21861
2.25656
2.33424
2.3837
2.39981
2.38396
2.34252
2.31676
2.31828
2.33614
2.36835
2.41693
2.47923
2.55695
2.65775
2.77669
2.92227
3.09235
3.31415
3.58324
3.87316
4.13641
4.2687
4.33057
4.39601
4.47454
4.56779
4.63148
4.6597
4.64721
4.63753
4.63307
4.63571
4.63544
4.61235
4.58722
4.55545
4.52231
4.48923
4.4533
4.41508
4.37606
4.33698
4.29873
4.26028
4.22122
4.1803
4.13726
4.09308
4.04913
4.00654
3.96517
3.9246
3.88461
3.84524
3.80645
3.76798
3.72951
3.69095
3.65212
3.61299
3.57348
3.53366
3.49363
3.45346
3.41307
3.3725
3.33186
3.29118
3.2502
3.20833
3.16262
3.10904
3.07234
5.90547
5.3076
4.81587
4.4919
4.22815
4.06339
3.85295
3.58332
3.30187
3.03103
2.83108
2.70611
2.64239
2.60743
2.55165
2.47587
2.37258
2.2666
2.20354
2.19067
2.19589
2.21135
2.22202
2.21656
2.23275
2.23954
2.35446
2.4385
2.62368
2.68104
2.67503
2.60682
2.49366
2.40913
2.36678
2.35166
2.35296
2.36752
2.38449
2.42587
2.47193
2.53444
2.61118
2.72484
2.88897
3.0829
3.3451
3.67941
4.02149
4.26922
4.36186
4.38366
4.4269
4.49054
4.57054
4.60558
4.5928
4.58343
4.58139
4.57379
4.56552
4.55302
4.53328
4.49809
4.46151
4.42564
4.39
4.35568
4.32083
4.2848
4.24658
4.20654
4.16531
4.12353
4.08163
4.03996
3.99877
3.95818
3.9182
3.87861
3.8394
3.80047
3.76171
3.72292
3.68394
3.64459
3.60495
3.56512
3.52521
3.48513
3.44488
3.40439
3.36379
3.3231
3.28234
3.24126
3.19926
3.15339
3.09947
3.06235
5.96216
5.40903
4.94861
4.6053
4.34059
4.1568
3.96182
3.71231
3.44346
3.17629
2.95286
2.78898
2.70271
2.6449
2.59119
2.5347
2.43277
2.34164
2.2606
2.21432
2.20512
2.20088
2.22059
2.22175
2.2748
2.31409
2.5471
2.81221
3.12858
3.15044
3.06773
2.87957
2.69727
2.56249
2.4747
2.41741
2.38174
2.36497
2.36365
2.3684
2.38086
2.40866
2.44291
2.50518
2.57946
2.68577
2.86886
3.10978
3.40843
3.80953
4.19716
4.38804
4.38541
4.39887
4.43139
4.49992
4.52389
4.53655
4.54416
4.52885
4.51769
4.50474
4.49115
4.46575
4.43002
4.39832
4.3683
4.33751
4.30399
4.26685
4.22804
4.18872
4.14873
4.10869
4.06925
4.02951
3.98914
3.94917
3.90994
3.87101
3.83199
3.79295
3.75391
3.71474
3.6753
3.63562
3.59591
3.55603
3.51601
3.47577
3.43545
3.39498
3.35438
3.31361
3.27271
3.23147
3.1893
3.14334
3.08914
3.05149
6.02414
5.506
5.06411
4.70381
4.44468
4.23428
4.04997
3.8217
3.56939
3.31318
3.07898
2.89122
2.77214
2.69302
2.64431
2.58413
2.4968
2.42183
2.33971
2.26076
2.21473
2.20983
2.22048
2.25465
2.33316
2.5204
2.96535
3.54417
3.68848
3.61774
3.43438
3.19476
2.98765
2.82471
2.69708
2.59666
2.51913
2.45707
2.40842
2.37634
2.36683
2.36579
2.36928
2.38629
2.40863
2.46469
2.55079
2.65986
2.85569
3.15957
3.53099
3.9933
4.3273
4.43848
4.39893
4.3803
4.40475
4.44753
4.47381
4.49527
4.47342
4.45157
4.43508
4.4264
4.4048
4.37735
4.34624
4.31208
4.27839
4.244
4.20831
4.17048
4.13148
4.09295
4.05474
4.01637
3.9779
3.9392
3.90009
3.86119
3.82246
3.7837
3.74457
3.70497
3.66495
3.62461
3.58429
3.54415
3.50413
3.46407
3.42389
3.38348
3.34271
3.3017
3.26067
3.21943
3.17723
3.13115
3.07663
3.03849
6.08104
5.59354
5.1619
4.79896
4.5317
4.29982
4.12354
3.91571
3.67806
3.43977
3.2097
3.00725
2.85636
2.75718
2.69144
2.62798
2.57462
2.49729
2.39918
2.30633
2.24007
2.22826
2.24437
2.30349
2.45327
2.84892
3.53747
4.26033
4.20392
4.04933
3.797
3.54585
3.33068
3.14787
2.98942
2.8518
2.73611
2.63629
2.5529
2.48463
2.42584
2.37921
2.35141
2.34802
2.35087
2.36216
2.38176
2.42547
2.52155
2.6627
2.88718
3.24168
3.71236
4.20544
4.4381
4.40008
4.35916
4.35741
4.37824
4.41232
4.4179
4.41422
4.39937
4.38257
4.36829
4.34747
4.32318
4.29056
4.25675
4.22191
4.18575
4.15023
4.11444
4.07769
4.03948
4.00096
3.96315
3.92608
3.88888
3.85121
3.81264
3.7732
3.73339
3.69349
3.65339
3.61317
3.57306
3.53305
3.493
3.45286
3.41244
3.3719
3.33119
3.29027
3.24915
3.20749
3.16476
3.11833
3.06363
3.02521
6.11908
5.65861
5.24233
4.88786
4.60694
4.3714
4.19489
3.99863
3.78095
3.55063
3.33149
3.12632
2.9498
2.8299
2.74555
2.69011
2.63051
2.54485
2.45827
2.36353
2.28321
2.26843
2.30038
2.41225
2.71208
3.36629
4.23605
4.67308
4.60235
4.39956
4.1225
3.86306
3.63601
3.43671
3.26179
3.10463
2.96453
2.84387
2.74036
2.646
2.56265
2.48981
2.42608
2.38141
2.34825
2.3323
2.3285
2.33582
2.35666
2.40142
2.50121
2.68274
2.98551
3.3991
3.94771
4.32416
4.42191
4.35461
4.30418
4.29217
4.32072
4.34998
4.34864
4.33955
4.32991
4.31125
4.28898
4.26046
4.2279
4.19553
4.16101
4.12618
4.09247
4.05822
4.02259
3.9857
3.94838
3.91109
3.87401
3.83683
3.79911
3.76038
3.72058
3.68041
3.64035
3.60059
3.56077
3.52057
3.48007
3.43956
3.39903
3.35846
3.31755
3.27634
3.23491
3.19288
3.14989
3.10329
3.04845
3.00983
6.17907
5.7347
5.32596
4.9756
4.68333
4.45089
4.2678
4.07617
3.87379
3.65549
3.43604
3.24386
3.05414
2.91279
2.81956
2.74458
2.67514
2.59837
2.51859
2.41114
2.35476
2.34317
2.41226
2.64619
3.22935
4.16842
4.8445
4.87927
4.78378
4.60108
4.37916
4.15257
3.93457
3.7262
3.53422
3.36302
3.20456
3.067
2.94589
2.83135
2.73061
2.6411
2.55581
2.47884
2.41617
2.3701
2.34047
2.31605
2.30718
2.30367
2.32458
2.39778
2.51782
2.74146
3.10138
3.5805
4.12387
4.39883
4.37676
4.28194
4.24333
4.24759
4.27465
4.29664
4.29795
4.28399
4.25897
4.23289
4.20117
4.16991
4.14306
4.11071
4.07349
4.0379
4.00384
3.97044
3.93627
3.90012
3.8623
3.82419
3.78627
3.74827
3.70976
3.67053
3.63045
3.58976
3.54904
3.50865
3.46835
3.42797
3.38719
3.34618
3.30466
3.26273
3.22073
3.17836
3.13521
3.08861
3.03363
2.9947
6.21309
5.79035
5.39418
5.04918
4.75074
4.51952
4.32914
4.15055
3.95799
3.7554
3.54211
3.34713
3.17112
3.0112
2.89222
2.80402
2.72776
2.6539
2.55793
2.47532
2.44851
2.48118
2.64693
3.1227
3.98167
4.79419
5.04907
4.97523
4.86994
4.73957
4.57823
4.39014
4.18218
3.97314
3.77511
3.59262
3.4241
3.27461
3.13398
3.0101
2.90094
2.79661
2.69121
2.60619
2.53764
2.47177
2.41822
2.35894
2.3075
2.27597
2.26661
2.27997
2.305
2.39795
2.55004
2.82743
3.24344
3.81588
4.2452
4.36593
4.27272
4.1904
4.1911
4.2146
4.24923
4.23713
4.21385
4.18512
4.16027
4.13838
4.11649
4.09078
4.05752
4.01928
3.98217
3.9484
3.91656
3.88438
3.84921
3.81161
3.77296
3.73411
3.69499
3.65588
3.61649
3.57594
3.53475
3.49358
3.4525
3.41157
3.3702
3.32855
3.28675
3.2446
3.2022
3.15953
3.11617
3.06972
3.01493
2.97567
6.27298
5.86343
5.46877
5.12391
4.82305
4.58698
4.39053
4.21705
4.03543
3.84555
3.64909
3.44729
3.27629
3.11209
2.96598
2.86963
2.77527
2.6817
2.60176
2.56743
2.58423
2.71592
3.10911
3.87103
4.73739
5.09849
5.07682
5.02369
4.95171
4.8534
4.72132
4.56175
4.37877
4.18547
3.99484
3.80813
3.63521
3.47357
3.32451
3.19353
3.07166
2.94753
2.84165
2.75628
2.67045
2.5838
2.50246
2.43734
2.37937
2.32637
2.27612
2.23895
2.23522
2.25266
2.28772
2.40225
2.60465
2.95003
3.41181
3.9825
4.28529
4.29936
4.21977
4.15152
4.12993
4.13988
4.14916
4.15093
4.13625
4.10959
4.0805
4.05586
4.03107
4.00119
3.96915
3.937
3.90177
3.86571
3.82948
3.79282
3.75624
3.71825
3.67898
3.63948
3.59946
3.55966
3.51945
3.47822
3.43639
3.3947
3.35311
3.31117
3.26893
3.22621
3.18334
3.14051
3.09709
3.05067
2.99579
2.95594
6.31198
5.93338
5.55113
5.20561
4.9015
4.65799
4.45697
4.28357
4.10576
3.92544
3.74371
3.55378
3.36932
3.19913
3.05512
2.93565
2.82182
2.72843
2.68239
2.69557
2.81578
3.1648
3.85671
4.74816
5.14978
5.12635
5.09719
5.06334
5.01607
4.94221
4.8359
4.69845
4.54066
4.36735
4.18648
4.00586
3.83012
3.66324
3.50861
3.36942
3.23113
3.10576
3.00233
2.89748
2.78711
2.6953
2.61872
2.54707
2.48257
2.40664
2.3353
2.27574
2.24176
2.21199
2.20489
2.22916
2.29594
2.43416
2.6809
3.06383
3.60122
4.11371
4.3254
4.26218
4.11762
4.06876
4.07034
4.09074
4.10145
4.09415
4.06082
4.02757
3.99934
3.97371
3.94872
3.92194
3.8896
3.84959
3.80956
3.77261
3.73766
3.70188
3.66339
3.62357
3.58243
3.54048
3.4993
3.45845
3.41673
3.37484
3.33235
3.28928
3.24592
3.20278
3.16011
3.11762
3.07428
3.02787
2.97298
2.93278
6.34863
5.99767
5.63509
5.28938
4.98006
4.72096
4.52526
4.34693
4.17466
4.00132
3.82512
3.64949
3.47019
3.29159
3.13365
2.98453
2.85375
2.80829
2.80877
2.90932
3.23634
3.90648
4.82486
5.25507
5.21571
5.17098
5.14123
5.11176
5.06994
5.00626
4.91745
4.80252
4.66632
4.51536
4.35397
4.18426
4.01217
3.84399
3.68466
3.53094
3.38759
3.26741
3.14366
3.01883
2.9116
2.82877
2.74574
2.65973
2.58003
2.49844
2.42435
2.35368
2.29129
2.23649
2.20077
2.17627
2.18518
2.21087
2.2929
2.48352
2.7875
3.22144
3.80928
4.18214
4.23673
4.13787
4.0234
3.98922
4.0126
4.02825
4.02462
4.00994
3.9847
3.95177
3.91923
3.88858
3.86141
3.82966
3.7905
3.75145
3.71366
3.6771
3.6407
3.60369
3.56502
3.52325
3.47942
3.43646
3.39448
3.35268
3.31054
3.26738
3.22393
3.18045
3.13721
3.09471
3.05148
3.00532
2.95025
2.90956
6.37023
6.06837
5.73234
5.38729
5.07474
4.79892
4.59506
4.41532
4.24124
4.07043
3.90035
3.72856
3.56249
3.39008
3.21598
3.03246
2.94165
2.92232
3.01392
3.30859
3.96025
4.90911
5.41179
5.37346
5.30711
5.25037
5.20209
5.15898
5.11195
5.05534
4.98275
4.89079
4.77446
4.63953
4.48893
4.3297
4.16836
4.00657
3.84907
3.69257
3.55097
3.4151
3.28354
3.16687
3.06293
2.95552
2.84513
2.75486
2.66654
2.58961
2.51512
2.44186
2.37155
2.30829
2.24911
2.19417
2.1615
2.13885
2.15521
2.20438
2.31893
2.54064
2.91409
3.38003
3.92562
4.17962
4.16173
4.04797
3.96336
3.93319
3.9479
3.95625
3.9526
3.9333
3.89818
3.86236
3.82824
3.79875
3.76558
3.72957
3.69497
3.65775
3.61898
3.57999
3.54032
3.49978
3.45715
3.41321
3.36946
3.32694
3.28458
3.24145
3.19777
3.15399
3.11028
3.06769
3.02415
2.97782
2.92344
2.88295
6.36833
6.09898
5.79292
5.47865
5.1724
4.89063
4.66218
4.48508
4.30663
4.13239
3.97092
3.80683
3.63417
3.46394
3.27278
3.1256
3.07106
3.12508
3.39138
4.0237
4.99972
5.57854
5.56098
5.49418
5.40691
5.32953
5.26784
5.21348
5.15782
5.09973
5.03257
4.95212
4.85357
4.73708
4.60036
4.45415
4.29876
4.14099
3.98072
3.82653
3.67337
3.53283
3.41715
3.29916
3.17611
3.05654
2.95163
2.85315
2.75491
2.67049
2.59382
2.51851
2.44574
2.3724
2.30398
2.24088
2.18498
2.14186
2.1223
2.10473
2.13634
2.21744
2.36368
2.63851
3.02534
3.55117
4.00971
4.16151
4.0682
3.94732
3.88641
3.87666
3.88778
3.89908
3.88387
3.8503
3.80917
3.76686
3.7324
3.70126
3.6725
3.64091
3.60081
3.55854
3.51545
3.47342
3.43113
3.38824
3.34428
3.30166
3.25929
3.21487
3.17026
3.1271
3.0837
3.04033
2.99744
2.9506
2.89601
2.85551
6.38599
6.13612
5.8683
5.57159
5.27891
4.99407
4.73351
4.54707
4.37079
4.18791
4.03237
3.87933
3.70973
3.52701
3.34578
3.25878
3.27924
3.49624
4.09963
5.0613
5.77947
5.78474
5.71794
5.60571
5.50134
5.42001
5.34899
5.27849
5.21068
5.14575
5.07859
5.00496
4.91933
4.81859
4.70159
4.56821
4.42134
4.26751
4.11038
3.95384
3.80125
3.66224
3.52836
3.39593
3.27232
3.1612
3.06097
2.95602
2.86069
2.76992
2.68298
2.6008
2.5256
2.45236
2.38124
2.31644
2.25476
2.20002
2.15026
2.10697
2.08263
2.09606
2.12447
2.21769
2.40559
2.71464
3.15861
3.73212
4.05124
4.06402
3.9665
3.86281
3.81716
3.8152
3.82142
3.8132
3.78166
3.73978
3.70001
3.66581
3.63775
3.61343
3.58013
3.53923
3.49235
3.44374
3.39901
3.35754
3.31505
3.27251
3.23035
3.18529
3.13896
3.09425
3.05207
3.00897
2.96634
2.92033
2.86614
2.8259
6.28474
6.1816
5.93478
5.67141
5.38226
5.11067
4.83365
4.60331
4.43101
4.25067
4.08872
3.94049
3.77838
3.59655
3.48774
3.47967
3.65655
4.20947
5.15748
5.96317
6.03295
5.95639
5.82154
5.69847
5.60546
5.51882
5.42793
5.33825
5.25954
5.18861
5.11993
5.04749
4.96855
4.87735
4.7739
4.65453
4.52466
4.38313
4.23755
4.08555
3.9377
3.78661
3.6404
3.51103
3.388
3.26707
3.15328
3.05015
2.95341
2.86131
2.77393
2.69018
2.60929
2.53106
2.45577
2.38036
2.3168
2.25881
2.1992
2.14449
2.10297
2.07796
2.06082
2.06707
2.11463
2.2566
2.48313
2.83136
3.31912
3.82039
4.03913
3.99438
3.8694
3.77376
3.73829
3.7393
3.74084
3.7161
3.68294
3.64878
3.61337
3.58051
3.54686
3.507
3.46083
3.41213
3.36636
3.32456
3.28357
3.23989
3.19685
3.15314
3.1073
3.06251
3.01872
2.97615
2.93347
2.88856
2.83488
2.79442
5.67657
6.23731
6.00769
5.73703
5.45031
5.18358
4.92912
4.67516
4.49181
4.32133
4.1484
3.98779
3.84031
3.72519
3.7101
3.86334
4.37777
5.30071
6.1929
6.40438
6.22984
6.03702
5.90873
5.82323
5.73066
5.62919
5.51999
5.41483
5.32254
5.24239
5.16783
5.09251
5.01419
4.92887
4.8346
4.72814
4.61032
4.48045
4.34223
4.1978
4.05089
3.90464
3.76386
3.62808
3.49772
3.37324
3.2552
3.14432
3.04399
2.9519
2.86419
2.77768
2.69242
2.60951
2.53223
2.45728
2.39049
2.32752
2.26773
2.21536
2.16432
2.11506
2.06714
2.04112
2.02379
2.05903
2.13841
2.29233
2.56955
2.9592
3.52081
3.8874
3.9467
3.87052
3.76523
3.68825
3.65797
3.6592
3.64486
3.61633
3.58805
3.55413
3.51091
3.46263
3.41868
3.37536
3.33416
3.29137
3.24782
3.20362
3.15917
3.11536
3.0713
3.02962
2.98599
2.94214
2.89917
2.85418
2.80119
2.76117
4.46577
5.84473
5.95884
5.74374
5.50933
5.24448
4.99822
4.74874
4.54806
4.39302
4.21925
4.04223
3.93649
3.93367
4.08037
4.58722
5.52468
6.49543
6.77353
6.55129
6.29158
6.13456
6.04638
5.95224
5.845
5.72789
5.60695
5.49072
5.38465
5.29321
5.21154
5.13185
5.05172
4.96813
4.8783
4.77991
4.67169
4.55389
4.42715
4.29404
4.15511
4.01525
3.87468
3.73784
3.60563
3.47929
3.35714
3.24211
3.1351
3.03803
2.94734
2.86393
2.77985
2.69697
2.61519
2.54177
2.4711
2.40461
2.34281
2.28176
2.22379
2.17092
2.12175
2.06795
2.03019
1.99597
2.00971
2.05504
2.15821
2.36163
2.68828
3.10916
3.63123
3.87733
3.86405
3.76155
3.65059
3.59816
3.58237
3.56617
3.54506
3.52065
3.48131
3.4246
3.37377
3.33043
3.29295
3.25658
3.21279
3.16669
3.11959
3.07428
3.03128
2.99133
2.95209
2.90847
2.86377
2.81694
2.76449
2.72562
3.20851
5.05328
5.93226
5.81345
5.59977
5.34905
5.11639
4.87176
4.64264
4.46626
4.29598
4.17561
4.15265
4.31006
4.8169
5.78328
6.84842
7.19699
6.93003
6.61228
6.41335
6.30251
6.19183
6.07863
5.96289
5.84024
5.71511
5.58962
5.46831
5.36022
5.267
5.18045
5.09543
5.00914
4.91984
4.82521
4.72401
4.61485
4.49758
4.37291
4.24326
4.1088
3.97388
3.83864
3.70656
3.57719
3.45264
3.33329
3.22187
3.11833
3.02109
2.92963
2.84237
2.75654
2.67221
2.59645
2.52662
2.45767
2.39549
2.3395
2.28456
2.23108
2.17856
2.12414
2.06658
2.01516
1.98513
1.97898
1.99494
2.06258
2.18742
2.44054
2.79746
3.30496
3.69833
3.81261
3.7406
3.62271
3.53209
3.48913
3.47618
3.4568
3.43163
3.39013
3.33604
3.28922
3.24551
3.20969
3.16903
3.12445
3.0804
3.03745
2.9949
2.9526
2.91347
2.87289
2.82953
2.78272
2.72912
2.68985
2.37167
4.00424
5.47233
5.88616
5.72395
5.44272
5.19363
4.97986
4.74166
4.52285
4.3942
4.37857
4.53923
5.07678
6.08085
7.22829
7.63381
7.33249
6.96857
6.72509
6.5831
6.45375
6.31963
6.18784
6.06171
5.93597
5.80858
5.67751
5.54726
5.42548
5.31846
5.22303
5.13172
5.04054
4.94844
4.85411
4.75592
4.65248
4.54316
4.42819
4.30783
4.18354
4.05613
3.92606
3.79574
3.66694
3.54205
3.42388
3.31345
3.20927
3.1086
3.01066
2.91681
2.83083
2.74989
2.67074
2.59339
2.51727
2.45177
2.39158
2.33863
2.28625
2.23284
2.17629
2.12053
2.06528
2.0114
1.96765
1.94656
1.94538
1.97094
2.05828
2.24875
2.53133
2.93975
3.44896
3.68111
3.66874
3.58979
3.49583
3.42595
3.38355
3.36489
3.33514
3.29604
3.25004
3.20226
3.15718
3.11824
3.0763
3.03286
2.99455
2.95738
2.91571
2.87312
2.83202
2.78808
2.74189
2.69024
2.65271
1.44701
2.59342
4.2462
5.42798
5.60598
5.42788
5.20808
4.99966
4.78497
4.63016
4.59137
4.7632
5.35084
6.44744
7.70408
8.14783
7.80411
7.39199
7.10249
6.9357
6.78097
6.62575
6.46894
6.32351
6.18541
6.04931
5.91174
5.77356
5.6377
5.50735
5.38663
5.27802
5.17765
5.08013
4.98379
4.8869
4.78858
4.68778
4.58389
4.47605
4.3647
4.24852
4.12873
4.00536
3.87914
3.75347
3.63006
3.51094
3.39764
3.29038
3.18773
3.08799
2.99155
2.90054
2.81543
2.73307
2.65461
2.58091
2.50999
2.44251
2.38354
2.33109
2.27934
2.22968
2.18089
2.12603
2.06808
2.00975
1.95716
1.92156
1.90309
1.90079
1.95684
2.0802
2.29486
2.6175
3.04458
3.42807
3.58132
3.55153
3.4499
3.34993
3.29218
3.26201
3.23038
3.19249
3.15414
3.11324
3.06779
3.02381
2.98585
2.95362
2.92153
2.88232
2.83724
2.79164
2.74663
2.70029
2.65068
2.6144
0.98519
1.62939
3.06036
4.74213
5.5226
5.49085
5.31698
5.09281
4.90746
4.84823
5.02447
5.6622
6.84637
8.17603
8.61868
8.24625
7.79601
7.46975
7.28138
7.11557
6.94784
6.76727
6.5937
6.43752
6.29171
6.14881
6.00624
5.86396
5.72234
5.58434
5.45338
5.33271
5.2208
5.11476
5.01166
4.91014
4.80928
4.7081
4.60667
4.50388
4.39891
4.29046
4.17812
4.06161
3.94156
3.82016
3.69967
3.58221
3.46887
3.35967
3.25462
3.15356
3.05619
2.96314
2.87621
2.79579
2.71851
2.6493
2.5772
2.50748
2.4417
2.38324
2.32892
2.27745
2.22512
2.1728
2.12047
2.06275
2.00619
1.95443
1.90733
1.87972
1.85626
1.89245
1.96695
2.08911
2.32608
2.67793
3.15026
3.40722
3.45118
3.39656
3.29458
3.21256
3.15504
3.12442
3.09797
3.0601
3.01834
2.97577
2.93989
2.90677
2.87344
2.83588
2.78932
2.74131
2.69694
2.65396
2.60824
2.57407
1.02778
1.25021
2.21479
3.74947
5.10237
5.59197
5.43518
5.19312
5.10943
5.302
6.02532
7.38206
8.7792
9.14411
8.73775
8.25011
7.88801
7.67918
7.5165
7.33809
7.13827
6.93295
6.74883
6.58096
6.42167
6.26567
6.11297
5.96281
5.81486
5.66979
5.52989
5.39765
5.27403
5.15733
5.04584
4.93774
4.83274
4.7307
4.6302
4.53036
4.42965
4.32694
4.22046
4.11056
3.99756
3.88272
3.76861
3.65583
3.54509
3.43722
3.33192
3.22981
3.13069
3.03516
2.94629
2.86298
2.78633
2.71195
2.64067
2.57178
2.50479
2.44058
2.38089
2.3256
2.27446
2.225
2.17116
2.11179
2.05162
1.99923
1.94711
1.90008
1.8591
1.82972
1.83746
1.85769
1.92601
2.10166
2.38735
2.78151
3.16809
3.33164
3.3078
3.22762
3.13971
3.07277
3.0303
3.00287
2.9752
2.93486
2.89545
2.85963
2.82132
2.78595
2.74305
2.69311
2.64689
2.60419
2.56142
2.53125
1.00594
1.04484
1.40771
2.46634
3.91995
5.11181
5.2718
5.28039
5.46412
6.342
8.03477
9.42026
9.65884
9.21883
8.67047
8.26819
8.05845
7.89957
7.72381
7.51007
7.27633
7.06805
6.88297
6.70922
6.53832
6.37125
6.20898
6.05076
5.89588
5.74433
5.59709
5.456
5.32235
5.19591
5.07577
4.96004
4.84938
4.74451
4.64427
4.54592
4.44775
4.34768
4.2455
4.13975
4.03334
3.92567
3.81865
3.7116
3.60549
3.49931
3.39474
3.29174
3.19243
3.09681
3.00657
2.92229
2.84406
2.77084
2.6999
2.63072
2.5628
2.49743
2.43733
2.38141
2.3289
2.27677
2.2199
2.15672
2.09504
2.04023
1.99053
1.94233
1.89353
1.84778
1.81167
1.79298
1.78005
1.84938
1.95644
2.17544
2.55347
2.91321
3.12605
3.16804
3.12938
3.05402
2.98045
2.92749
2.88987
2.86232
2.83447
2.80174
2.76588
2.72967
2.68899
2.64305
2.59743
2.55672
2.52065
2.49787
1.00307
1.01911
1.00469