/*--------------------------------*- C++ -*----------------------------------*\
| =========                 |                                                 |
| \\      /  F ield         | OpenFOAM: The Open Source CFD Toolbox           |
|  \\    /   O peration     | Version:  v2106                                 |
|   \\  /    A nd           | Website:  www.openfoam.com                      |
|    \\/     M anipulation  |                                                 |
\*---------------------------------------------------------------------------*/
FoamFile
{
    version     2.0;
    format      ascii;
    arch        "LSB;label=32;scalar=64";
    class       surfaceScalarField;
    location    "8";
    object      phi;
}
// * * * * * * * * * * * * * * * * * * * * * * * * * * * * * * * * * * * * * //

dimensions      [1 0 -1 0 0 0 0];

oriented        oriented;

internalField   nonuniform List<scalar> 
10325
(
0.0084507
8.80914e-18
0.0084507
8.94467e-18
0.0084507
4.90276e-16
0.0084507
-1.3195e-15
0.0084507
4.21905e-14
0.0084507
2.66044e-14
0.0084507
3.30211e-12
0.0084507
3.67457e-12
0.00845068
2.56191e-10
0.00845044
3.83918e-10
0.00844841
1.91455e-08
0.00843027
6.77803e-08
0.00828377
1.34852e-06
0.00749503
1.33397e-05
0.0065152
2.24412e-05
0.00580322
0.000786506
0.00705919
0.000662664
0.00640013
0.000641941
0.00559853
0.00069244
0.00486491
0.000699534
0.00403248
0.00076135
0.00313511
0.000831865
0.00218005
0.000912969
0.00114647
0.00100579
0.00113225
0.0084507
4.68104e-17
0.0084507
-4.71357e-17
0.0084507
1.10562e-15
0.0084507
-1.38953e-14
0.0084507
1.00333e-13
0.0084507
-2.87196e-13
0.0084507
7.41037e-12
0.0084507
-1.54608e-11
0.00845068
5.56925e-10
0.00845045
-9.06007e-10
0.00844849
4.21222e-08
0.00843089
3.25948e-08
0.00828896
2.82656e-06
0.00750824
2.74575e-05
0.00651246
5.99489e-05
0.00576147
0.00153535
0.00702148
0.00139935
0.00636813
0.00128594
0.00555137
0.00140932
0.00479728
0.00142355
0.00396065
0.00153339
0.00306781
0.00166143
0.00210709
0.00183325
0.00107111
0.00201539
0.00219064
0.0084507
1.48861e-16
0.0084507
3.68629e-18
0.0084507
-4.67129e-16
0.0084507
-6.2549e-14
0.0084507
3.04689e-13
0.0084507
-1.53892e-12
0.0084507
1.82974e-11
0.0084507
-9.10714e-11
0.00845068
1.19923e-09
0.00845047
-1.44118e-08
0.00844866
6.6219e-08
0.00843241
-4.39588e-07
0.00830132
4.1964e-06
0.00754402
3.89323e-05
0.00653938
9.72947e-05
0.00578676
0.00212666
0.0070573
0.00229747
0.00639514
0.00196243
0.00555573
0.00216601
0.00478942
0.0021768
0.00395227
0.00230801
0.00306179
0.00248988
0.00211462
0.00274395
0.001076
0.00303222
0.00325961
0.0084507
7.63549e-17
0.0084507
5.64327e-17
0.0084507
-3.9459e-15
0.0084507
-6.37472e-14
0.0084507
4.991e-13
0.0084507
-9.80072e-13
0.0084507
2.77501e-11
0.0084507
-2.15378e-11
0.00845068
1.62254e-09
0.00845048
-8.51709e-09
0.00844885
8.83013e-08
0.008435
-2.7198e-06
0.00831929
5.76534e-06
0.00759722
4.76811e-05
0.00658219
0.000133177
0.00589266
0.00255861
0.00713436
0.00325295
0.00647105
0.00266165
0.00566485
0.00293854
0.00489428
0.00296599
0.00402437
0.00312655
0.00311049
0.00334114
0.00214931
0.00366569
0.00109914
0.00406101
0.0043512
0.0084507
-6.16911e-17
0.0084507
5.09033e-16
0.0084507
1.21467e-14
0.0084507
6.46938e-14
0.0084507
-3.55464e-15
0.0084507
2.64704e-12
0.0084507
8.56478e-12
0.0084507
1.23571e-10
0.00845069
9.50594e-10
0.00845052
-2.0141e-08
0.00844915
1.34569e-07
0.00843694
-4.54481e-06
0.00833878
6.58242e-06
0.00766719
5.13492e-05
0.00665361
0.000150141
0.00610356
0.00272614
0.00731741
0.00429767
0.00663103
0.00338115
0.00581835
0.00371832
0.00503071
0.00381061
0.00420466
0.00393392
0.00325614
0.00423689
0.00226294
0.00462186
0.00114598
0.00515854
0.00549371
0.0084507
-2.93331e-16
0.0084507
4.94857e-16
0.0084507
2.73024e-15
0.0084507
4.24079e-14
0.0084507
-1.27541e-13
0.0084507
8.90025e-13
0.0084507
1.12987e-11
0.0084507
3.00881e-11
0.00845069
2.15982e-09
0.00845058
-4.26113e-08
0.00844959
1.18903e-07
0.00843741
-2.11503e-06
0.00835665
5.46054e-06
0.00775098
4.74128e-05
0.00674458
0.000147918
0.00641901
0.00248625
0.0076528
0.00541638
0.00689604
0.00416972
0.00606256
0.00452113
0.00524896
0.00470119
0.00438891
0.00480057
0.0034953
0.00510681
0.00237754
0.00570809
0.0012029
0.00630951
0.00670515
0.0084507
-2.65413e-16
0.0084507
2.88615e-16
0.0084507
-5.98122e-15
0.0084507
-4.97269e-15
0.0084507
-3.19994e-13
0.0084507
-2.01282e-12
0.0084507
2.3224e-11
0.0084507
-5.25107e-11
0.00845069
2.32048e-09
0.00845058
-1.76651e-08
0.00844983
6.50534e-08
0.00843918
3.27444e-07
0.00837412
4.25806e-06
0.00783224
4.26387e-05
0.00679055
0.000180103
0.00658813
0.00198722
0.00817044
0.00626267
0.00734435
0.00502435
0.00652729
0.0053103
0.00568059
0.00565804
0.00483478
0.00567178
0.00387541
0.00607164
0.00264697
0.0069339
0.00147404
0.00748118
0.00818798
0.0084507
9.21572e-19
0.0084507
-1.53957e-17
0.0084507
7.6073e-16
0.0084507
8.19267e-15
0.0084507
1.00525e-13
0.0084507
6.94187e-13
0.0084507
-9.85603e-13
0.0084507
-1.12608e-11
0.0084507
6.76826e-10
0.00845057
3.04343e-09
0.0084501
4.55639e-08
0.00844186
3.91286e-07
0.00839065
3.8656e-06
0.00791623
3.90385e-05
0.00687174
0.000221393
0.0065477
0.00157307
0.00842134
0.00673784
0.00768377
0.00577743
0.00696872
0.00599529
0.00617829
0.00654072
0.00526799
0.00665117
0.00413486
0.00720701
0.00297387
0.00808087
0.00166508
0.00877383
0.00992692
0.0084507
8.84167e-17
0.0084507
-2.43945e-19
0.0084507
1.96937e-15
0.0084507
1.68239e-14
0.0084507
2.24942e-13
0.0084507
1.78418e-12
0.0084507
-4.03041e-11
0.0084507
1.86855e-11
0.0084507
2.06801e-10
0.0084506
4.61676e-09
0.00845026
2.83717e-08
0.00844362
3.88726e-07
0.00840434
3.13445e-06
0.00800667
3.41589e-05
0.00700267
0.000234219
0.00650976
0.00129616
0.00840703
0.00711844
0.0079525
0.00622472
0.00738552
0.00655234
0.00669481
0.00726846
0.005877
0.0075619
0.0048711
0.00827005
0.00379104
0.00921439
0.00250497
0.0100877
0.0125668
0.0084507
7.32921e-17
0.0084507
-1.64636e-16
0.0084507
7.92061e-15
0.0084507
3.99249e-15
0.0084507
4.68617e-13
0.0084507
2.97592e-13
0.0084507
-3.62122e-12
0.0084507
2.01966e-10
0.0084507
-6.03296e-10
0.00845062
6.41085e-09
0.00845041
-2.46715e-09
0.00844497
3.08349e-07
0.00841586
2.5386e-06
0.00810694
4.73883e-06
0.00716195
0.000236631
0.00651998
0.00112358
0.00823298
0.00746876
0.0081114
0.00648607
0.00779164
0.00688611
0.00721121
0.00788676
0.00647305
0.00837228
0.00554727
0.00924074
0.00444077
0.0103562
0.00269429
0.0118352
0.0157624
0.0084507
7.18284e-18
0.0084507
-1.7022e-17
0.0084507
4.79445e-15
0.0084507
7.21564e-15
0.0084507
2.80876e-13
0.0084507
-5.98631e-13
0.0084507
1.19667e-11
0.0084507
1.30486e-10
0.0084507
-1.97369e-10
0.00845065
8.32913e-09
0.00845031
-8.9522e-08
0.00844691
3.14302e-07
0.0084197
4.74742e-07
0.00818644
1.01568e-06
0.00730822
0.000220639
0.006565
0.00098919
0.00797426
0.00750235
0.00823399
0.00690465
0.00808126
0.00709526
0.00763603
0.00830995
0.00704681
0.00900371
0.00645921
0.00994561
0.00605008
0.0109781
0.00579775
0.0124383
0.0134861
0.00883993
0.0084507
1.27123e-17
0.0084507
8.2833e-17
0.0084507
2.22977e-15
0.0084507
1.6475e-15
0.0084507
1.06332e-13
0.0084507
6.33758e-13
0.0084507
5.86058e-12
0.0084507
3.29316e-11
0.0084507
2.85888e-10
0.00845067
6.54522e-09
0.00845041
-7.93827e-08
0.00844831
3.88108e-07
0.00843046
-2.2369e-06
0.00826706
1.98729e-05
0.00749063
0.000175678
0.00669306
0.000825309
0.00743617
0.00740023
0.00811448
0.00764588
0.00794199
0.00729913
0.00793938
0.00828867
0.00774289
0.00918292
0.0074172
0.0103016
0.00761851
0.0108482
0.00801284
0.0118152
0.0120253
0.0102871
0.0084507
8.40257e-18
0.0084507
-1.79164e-17
0.0084507
4.95779e-16
0.0084507
1.11185e-15
0.0084507
1.44283e-14
0.0084507
5.71383e-13
0.0084507
-3.31318e-14
0.0084507
3.43901e-11
0.0084507
8.29004e-11
0.00845069
2.7073e-09
0.0084505
1.37898e-08
0.00844927
2.61499e-07
0.00843645
-7.01917e-07
0.00835079
1.2585e-05
0.00775579
0.000114965
0.00696609
0.000532355
0.00755177
0.00603526
0.00857438
0.0091456
0.00810299
0.00770507
0.00803184
0.00834319
0.00815827
0.00908885
0.00835592
0.010145
0.00871744
0.0106999
0.00928637
0.0112326
0.0112436
0.010682
0.0084507
3.63208e-18
0.0084507
6.58924e-17
0.0084507
1.63389e-16
0.0084507
2.92192e-15
0.0084507
1.76684e-14
0.0084507
-1.53985e-13
0.0084507
1.11423e-12
0.0084507
2.64529e-12
0.0084507
2.63708e-11
0.0084507
1.47566e-09
0.0084506
7.53676e-09
0.00845004
1.053e-07
0.00844076
7.98587e-07
0.00838699
7.81411e-06
0.00791304
7.8587e-05
0.00700949
0.000393214
0.0077089
0.00430008
0.00947451
0.0102061
0.00879851
0.00839254
0.00850591
0.00859645
0.00854895
0.00906625
0.00887712
0.00987741
0.00940749
0.0103664
0.00997375
0.010769
0.0105437
0.0111575
0.0084507
1.24412e-17
0.0084507
1.23599e-16
0.0084507
-1.00478e-16
0.0084507
3.70813e-15
0.0084507
2.75678e-14
0.0084507
5.69537e-14
0.0084507
4.47269e-13
0.0084507
9.03512e-12
0.0084507
2.39552e-10
0.0084507
1.66179e-10
0.0084506
8.55041e-09
0.0084504
4.37018e-08
0.00844446
4.19442e-07
0.0084145
4.85484e-06
0.00809073
3.01152e-05
0.0071583
0.000373965
0.00748174
0.00283107
0.0100545
0.0101503
0.00964318
0.00906974
0.00923132
0.00911947
0.00903516
0.00929322
0.00920471
0.00971025
0.00970037
0.00997547
0.010323
0.0102391
0.00988038
0.0113786
0.0084507
7.18284e-18
0.0084507
-1.02999e-17
0.0084507
-1.54526e-16
0.0084507
2.43043e-15
0.0084507
8.20248e-15
0.0084507
1.27059e-13
0.0084507
-1.33691e-12
0.0084507
3.56895e-12
0.0084507
1.92752e-10
0.0084507
2.69634e-10
0.00845066
6.61867e-09
0.00845033
3.88625e-08
0.00844729
2.73333e-07
0.00842267
3.82659e-06
0.00822094
1.30962e-05
0.00742352
0.000301156
0.00731067
0.00180529
0.00968962
0.00898708
0.0102519
0.00972127
0.00999572
0.00959169
0.00970324
0.00955172
0.00966854
0.0096952
0.00995876
0.00975047
0.0105284
0.00978136
0.00946078
0.0112617
0.0084507
2.03288e-18
0.0084507
2.74574e-17
0.0084507
2.57688e-16
0.0084507
3.36618e-16
0.0084507
1.56005e-14
0.0084507
6.29459e-14
0.0084507
9.49871e-13
0.0084507
6.49609e-12
0.0084507
3.79038e-11
0.0084507
3.8033e-10
0.0084507
2.73064e-09
0.00845049
2.78103e-08
0.00844972
2.27152e-07
0.00843683
2.11867e-06
0.0083444
1.87275e-05
0.00777358
0.000166938
0.00724685
0.00111115
0.00875839
0.00703464
0.0103064
0.0104706
0.0101461
0.00979556
0.0100429
0.00955819
0.0100501
0.00964853
0.0102684
0.00961269
0.0106361
0.009501
0.00917705
0.0111634
0.0084507
1.0842e-18
0.0084507
5.15809e-17
0.0084507
3.34097e-16
0.0084507
-6.56213e-17
0.0084507
1.44549e-14
0.0084507
3.97637e-14
0.0084507
1.11454e-12
0.0084507
6.22942e-12
0.0084507
-5.99895e-12
0.0084507
3.02132e-10
0.0084507
2.61301e-10
0.00845057
1.40391e-08
0.0084502
8.14468e-08
0.0084424
8.03106e-07
0.0083998
8.84717e-06
0.00801351
5.49208e-05
0.00733433
0.000694115
0.00849522
0.00466732
0.0109526
0.0108896
0.0107862
0.0100553
0.0106937
0.0098532
0.0106165
0.0097263
0.0106965
0.0096053
0.0108897
0.00939151
0.00901021
0.0112403
0.0084507
-4.33681e-19
0.0084507
1.97596e-17
0.0084507
6.41848e-17
0.0084507
1.35064e-16
0.0084507
1.36973e-15
0.0084507
8.09563e-15
0.0084507
4.36215e-13
0.0084507
1.71032e-12
0.0084507
3.71977e-12
0.0084507
1.2161e-10
0.0084507
2.14872e-10
0.00845065
7.61665e-09
0.00845022
6.23357e-08
0.00844646
3.65757e-07
0.00841644
5.79373e-06
0.00818372
1.60653e-05
0.0074507
0.000444788
0.0080631
0.00274553
0.0111701
0.00957698
0.0115788
0.0106908
0.0113877
0.0103395
0.0111754
0.00998254
0.0111057
0.00970261
0.0111669
0.00937998
0.00895633
0.0113534
0.0084507
2.73761e-18
0.0084507
-4.60786e-19
0.0084507
8.12067e-17
0.0084507
3.52339e-16
0.0084507
5.07428e-15
0.0084507
3.66154e-14
0.0084507
1.88296e-14
0.0084507
2.27342e-12
0.0084507
5.73402e-12
0.0084507
1.19111e-10
0.0084507
9.27304e-10
0.00845071
1.93095e-09
0.00845039
4.64171e-08
0.00844975
2.60275e-07
0.00843287
2.51832e-06
0.00832223
2.86071e-05
0.00783546
5.93258e-05
0.00777837
0.00155796
0.00996377
0.00740141
0.011737
0.0112209
0.0116144
0.010668
0.011444
0.0100679
0.0113895
0.00973128
0.01142
0.00937563
0.00893175
0.011543
0.0084507
2.41235e-18
0.0084507
-2.11419e-18
0.0084507
3.38271e-17
0.0084507
1.85751e-16
0.0084507
2.29274e-15
0.0084507
1.79872e-14
0.0084507
3.32511e-15
0.0084507
1.23367e-12
0.0084507
1.87547e-12
0.0084507
5.00111e-11
0.0084507
5.37337e-10
0.00845069
3.87348e-10
0.0084506
2.70456e-08
0.00844981
1.10729e-07
0.00844318
1.01737e-06
0.00839234
1.53892e-05
0.00806037
-5.1703e-05
0.00745066
0.00096067
0.00888515
0.00471674
0.0119875
0.0108182
0.0120148
0.0109001
0.0119515
0.01037
0.0118096
0.00992337
0.0117527
0.00946095
0.00897393
0.0117812
0.0084507
2.98156e-19
0.0084507
1.02999e-18
0.0084507
6.4239e-18
0.0084507
5.2882e-17
0.0084507
8.20389e-16
0.0084507
5.63173e-15
0.0084507
6.39155e-14
0.0084507
1.48083e-13
0.0084507
3.56305e-12
0.0084507
1.57294e-11
0.0084507
2.05385e-10
0.0084507
2.04061e-09
0.00845072
4.06138e-09
0.00845003
1.01137e-07
0.00845006
4.98486e-07
0.00842058
5.28119e-06
0.00818942
5.16093e-05
0.00772795
0.000155423
0.00855641
0.0027396
0.011708
0.00896299
0.0127102
0.0113292
0.0124794
0.0108904
0.0122887
0.0101388
0.0121609
0.00962434
0.00911369
0.0120836
0.0084507
3.25261e-19
0.0084507
8.67362e-19
0.0084507
4.03865e-18
0.0084507
1.02999e-17
0.0084507
3.9465e-16
0.0084507
1.48633e-15
0.0084507
3.35943e-14
0.0084507
5.24995e-14
0.0084507
1.59096e-12
0.0084507
6.08925e-12
0.0084507
6.80207e-11
0.0084507
1.29601e-09
0.00845069
7.88299e-10
0.00845055
4.84271e-08
0.00844947
1.64531e-07
0.00844059
1.63709e-06
0.00837628
2.43981e-05
0.00803903
-9.7426e-05
0.0077752
0.00158112
0.00976925
0.00626076
0.0126363
0.01125
0.0125219
0.0109671
0.0125893
0.0102761
0.0124929
0.00979898
0.00926636
0.0123999
0.0084507
-6.77626e-19
0.0084507
-2.43945e-19
0.0084507
-1.92446e-18
0.0084507
1.06523e-17
0.0084507
8.29686e-17
0.0084507
1.57562e-16
0.0084507
6.42411e-15
0.0084507
4.99232e-14
0.0084507
2.8756e-13
0.0084507
2.35419e-12
0.0084507
3.16595e-11
0.0084507
1.86183e-10
0.00845069
2.33522e-09
0.00845074
1.02496e-08
0.00844978
1.61381e-07
0.00845057
7.88779e-07
0.00841176
7.36367e-06
0.00810397
6.78939e-05
0.00779267
0.000343751
0.00925471
0.00364273
0.0127471
0.00960406
0.0134089
0.0113906
0.0131366
0.0108168
0.0129292
0.0100559
0.00949108
0.0127635
0.0084507
-8.13152e-20
0.0084507
-4.33681e-19
0.0084507
-1.19262e-18
0.0084507
6.23416e-18
0.0084507
4.14165e-17
0.0084507
8.8227e-17
0.0084507
4.3888e-15
0.0084507
1.35995e-14
0.0084507
4.71008e-14
0.0084507
4.41872e-13
0.0084507
1.47957e-11
0.0084507
5.72212e-11
0.0084507
1.11297e-09
0.00845068
3.09809e-09
0.0084505
7.26971e-08
0.00844912
2.64151e-07
0.00843747
1.84318e-06
0.00835842
2.9481e-05
0.00801513
-6.59231e-05
0.00828132
0.0018564
0.0108818
0.0069647
0.0134455
0.0113989
0.0132994
0.011034
0.0132855
0.0102751
0.00974251
0.0131313
0.0084507
-8.13152e-20
0.0084507
-4.60786e-19
0.0084507
-1.00289e-18
0.0084507
3.57787e-18
0.0084507
2.24701e-17
0.0084507
2.13046e-17
0.0084507
2.32599e-15
0.0084507
5.55155e-15
0.0084507
9.25439e-14
0.0084507
9.22251e-13
0.0084507
2.69747e-12
0.0084507
3.60302e-11
0.0084507
2.55043e-10
0.00845069
2.74143e-09
0.00845073
1.7495e-08
0.00844981
1.93762e-07
0.00845053
1.0846e-06
0.00840923
8.39955e-06
0.00810124
8.6027e-05
0.00778324
0.000522532
0.00953089
0.00405554
0.013291
0.00971309
0.013948
0.0113139
0.0137115
0.0107965
0.0100263
0.0134989
0.0084507
-5.69206e-19
0.0084507
-2.43945e-19
0.0084507
-1.89735e-19
0.0084507
1.70762e-18
0.0084507
3.1984e-18
0.0084507
3.5345e-17
0.0084507
3.24583e-16
0.0084507
3.56499e-15
0.0084507
1.92114e-14
0.0084507
4.86823e-13
0.0084507
2.25492e-13
0.0084507
5.83781e-12
0.0084507
1.02753e-10
0.0084507
7.67235e-10
0.00845068
5.65714e-09
0.00845049
6.24169e-08
0.00844909
2.73933e-07
0.00843678
1.0516e-06
0.00836359
3.19025e-05
0.00807702
-3.38622e-05
0.00860805
0.00199356
0.0114428
0.0070663
0.0139969
0.0112038
0.0139033
0.010976
0.0102698
0.01386
0.0084507
3.25261e-19
0.0084507
8.40257e-19
0.0084507
1.13841e-18
0.0084507
1.35525e-18
0.0084507
4.01155e-18
0.0084507
2.66443e-17
0.0084507
3.76354e-16
0.0084507
2.93819e-16
0.0084507
2.51679e-14
0.0084507
1.028e-13
0.0084507
1.42932e-12
0.0084507
1.43831e-11
0.0084507
2.99642e-11
0.0084507
6.6579e-10
0.0084507
2.73647e-09
0.00845044
4.0573e-08
0.00845078
2.21588e-07
0.00845041
1.34697e-06
0.00841111
5.27749e-06
0.00813019
9.387e-05
0.00777943
0.000691639
0.00967838
0.00401665
0.0136155
0.00930023
0.0143834
0.0111408
0.0108079
0.0141476
0.0084507
-1.35525e-19
0.0084507
-5.14996e-19
0.0084507
-5.96311e-19
0.0084507
-8.40257e-19
0.0084507
-1.35525e-18
0.0084507
1.52873e-17
0.0084507
1.66425e-16
0.0084507
-2.96041e-16
0.0084507
1.13145e-14
0.0084507
2.59734e-14
0.0084507
5.37084e-13
0.0084507
8.20935e-12
0.0084507
8.48598e-12
0.0084507
2.78297e-10
0.0084507
7.00072e-10
0.00845068
1.50346e-08
0.00845051
8.62565e-08
0.00844926
4.37464e-07
0.00843813
-3.03044e-06
0.00838288
3.01351e-05
0.00815471
5.24471e-05
0.00869638
0.00195171
0.0115013
0.00670588
0.0142943
0.0108251
0.0109267
0.0142312
0.0084507
-1.0842e-19
0.0084507
-5.42101e-20
0.0084507
-1.38236e-18
0.0084507
-2.76472e-18
0.0084507
-3.17129e-18
0.0084507
4.52654e-18
0.0084507
3.39084e-17
0.0084507
1.16633e-16
0.0084507
2.90786e-15
0.0084507
1.81494e-14
0.0084507
1.61828e-13
0.0084507
9.89331e-13
0.0084507
9.27382e-12
0.0084507
6.25436e-11
0.0084507
5.85495e-10
0.0084507
3.84565e-09
0.00845058
3.75557e-08
0.00845097
2.29382e-07
0.00844674
1.10922e-06
0.00841603
-2.2972e-06
0.00821856
9.39001e-05
0.00784162
0.000777414
0.00967211
0.00369774
0.0136213
0.00861178
0.0110403
0.0146802
0.0084507
1.6263e-19
0.0084507
4.06576e-19
0.0084507
-2.98156e-19
0.0084507
-1.0842e-19
0.0084507
-2.71051e-20
0.0084507
-5.69206e-19
0.0084507
1.98951e-17
0.0084507
-4.73254e-17
0.0084507
8.54839e-16
0.0084507
8.35259e-15
0.0084507
4.03291e-14
0.0084507
5.09507e-13
0.0084507
2.06697e-12
0.0084507
2.11966e-11
0.0084507
1.50388e-10
0.0084507
1.37894e-09
0.0084507
1.13137e-08
0.00845055
9.21032e-08
0.00844983
2.81989e-07
0.00844048
-1.02451e-05
0.00840495
2.86795e-05
0.00826487
9.40887e-05
0.00867316
0.00185634
0.0111587
0.00597312
0.0101781
0.0143252
0.0084507
-2.43945e-19
0.0084507
-5.14996e-19
0.0084507
-1.35525e-19
0.0084507
1.35525e-19
0.0084507
8.13152e-20
0.0084507
-1.00289e-18
0.0084507
2.00577e-18
0.0084507
-4.21484e-17
0.0084507
1.04842e-16
0.0084507
3.0893e-15
0.0084507
5.42725e-15
0.0084507
1.49599e-13
0.0084507
-1.53633e-13
0.0084507
6.7876e-12
0.0084507
-2.10046e-12
0.0084507
3.48036e-10
0.00845072
-7.87549e-11
0.00845084
2.10729e-09
0.00845129
2.698e-07
0.00844022
3.09499e-07
0.0084153
4.40748e-06
0.00830142
7.76496e-05
0.00792461
0.000789123
0.00958963
0.00307795
0.00765757
0.0132242
0.0084507
-6.50521e-19
0.0084507
-4.06576e-19
0.0084507
-1.35525e-18
0.0084507
-1.11131e-18
0.0084507
-1.76183e-18
0.0084507
-2.87314e-18
0.0084507
-3.95734e-18
0.0084507
3.36103e-18
0.0084507
-2.79182e-18
0.0084507
7.4707e-16
0.0084507
6.92729e-15
0.0084507
4.82485e-14
0.0084507
1.11289e-13
0.0084507
1.7118e-12
0.0084507
2.3331e-12
0.0084507
7.28515e-11
0.0084507
2.3191e-10
0.00845068
-5.53674e-09
0.00845055
1.9624e-07
0.00844964
-1.71297e-07
0.00844293
-2.36288e-06
0.00843023
8.2681e-06
0.0083626
0.000177959
0.00897148
0.000875661
0.00495183
0.0111514
0.0084507
-4.87891e-19
0.0084507
4.33681e-19
0.0084507
-1.89735e-19
0.0084507
-2.43945e-19
0.0084507
-7.04731e-19
0.0084507
-8.40257e-19
0.0084507
-9.21572e-19
0.0084507
1.46367e-18
0.0084507
2.28496e-17
0.0084507
3.32633e-16
0.0084507
2.03662e-15
0.0084507
2.45268e-14
0.0084507
1.62101e-14
0.0084507
4.6563e-13
0.0084507
-3.72125e-13
0.0084507
5.09294e-11
0.0084507
2.8828e-10
0.00845069
1.22666e-09
0.00845078
4.60535e-09
0.0084503
1.19e-07
0.0084467
8.60658e-07
0.00843531
-6.55013e-06
0.00839528
6.86329e-05
0.00831087
-8.20104e-05
0.00244095
0.00943713
0.0084507
-1.0842e-19
0.0084507
3.79471e-19
0.0084507
9.48677e-19
0.0084507
5.96311e-19
0.0084507
1.24683e-18
0.0084507
1.78893e-18
0.0084507
2.46656e-18
0.0084507
3.14419e-18
0.0084507
1.35254e-17
0.0084507
9.70903e-17
0.0084507
1.41895e-16
0.0084507
5.99691e-15
0.0084507
2.65305e-14
0.0084507
1.35396e-13
0.0084507
6.97895e-13
0.0084507
2.12814e-11
0.0084507
4.90644e-11
0.0084507
4.30494e-10
0.0084507
5.63586e-09
0.00845059
1.70807e-08
0.00844982
1.43466e-07
0.00843553
5.27617e-07
0.00847059
1.56893e-05
0.00828165
9.4287e-05
0.000966147
0.00792547
0.0084507
4.60786e-19
0.0084507
2.1684e-19
0.0084507
3.25261e-19
0.0084507
7.86047e-19
0.0084507
1.81604e-18
0.0084507
2.03288e-18
0.0084507
2.57498e-18
0.0084507
2.73761e-18
0.0084507
6.9931e-18
0.0084507
1.9082e-17
0.0084507
1.79192e-16
0.0084507
1.39645e-15
0.0084507
7.68821e-15
0.0084507
9.12155e-14
0.0084507
-9.63122e-13
0.0084507
7.51343e-12
0.0084507
-1.50946e-11
0.0084507
2.32952e-10
0.0084507
1.6295e-09
0.00845069
-9.70738e-09
0.00845048
6.7679e-08
0.00844978
6.00453e-07
0.00844277
4.03972e-06
0.00843089
1.29713e-05
0.000233114
0.00836346
0.0084507
1.0842e-19
0.0084507
3.52366e-19
0.0084507
8.13152e-20
0.0084507
2.1684e-19
0.0084507
5.69206e-19
0.0084507
3.25261e-19
0.0084507
8.40257e-19
0.0084507
6.77626e-19
0.0084507
2.33103e-18
0.0084507
7.64363e-18
0.0084507
6.12574e-17
0.0084507
3.29191e-16
0.0084507
2.82581e-15
0.0084507
2.04023e-14
0.0084507
1.71207e-13
0.0084507
1.58448e-12
0.0084507
4.25736e-12
0.0084507
6.87701e-11
0.0084507
4.00229e-10
0.00845069
1.38678e-09
0.00845066
2.68115e-08
0.00845062
-9.06675e-09
0.00844949
2.09384e-06
0.00844197
-2.77598e-06
8.63573e-05
0.00841014
0.0084507
-2.43945e-19
0.0084507
1.0842e-19
0.0084507
5.42101e-20
0.0084507
4.33681e-19
0.0084507
8.67362e-19
0.0084507
8.13152e-19
0.0084507
4.33681e-19
0.0084507
-8.13152e-20
0.0084507
1.19262e-18
0.0084507
2.57498e-18
0.0084507
2.2958e-17
0.0084507
1.21837e-16
0.0084507
1.36718e-15
0.0084507
8.32871e-15
0.0084507
7.04635e-14
0.0084507
5.00031e-13
0.0084507
1.7844e-14
0.0084507
2.72282e-11
0.0084507
9.70523e-11
0.0084507
8.22057e-10
0.00845073
8.67916e-09
0.00845054
3.78538e-08
0.00845075
4.98905e-07
0.00844032
1.08418e-06
1.69808e-05
0.00851455
0.0084507
4.06576e-19
0.0084507
7.04731e-19
0.0084507
7.86047e-19
0.0084507
5.96311e-19
0.0084507
1.35525e-19
0.0084507
-5.96311e-19
0.0084507
-1.21973e-18
0.0084507
-1.57209e-18
0.0084507
-1.89735e-18
0.0084507
-2.35814e-18
0.0084507
4.79759e-18
0.0084507
1.82688e-17
0.0084507
3.63099e-16
0.0084507
2.36036e-15
0.0084507
1.87094e-14
0.0084507
8.24877e-14
0.0084507
7.10017e-13
0.0084507
8.00592e-12
0.0084507
3.88447e-11
0.0084507
1.15639e-10
0.0084507
2.99952e-09
0.00845067
4.25177e-09
0.00845073
1.30012e-07
0.00845045
6.66388e-07
1.78573e-06
0.00844475
0.0084507
1.0842e-19
0.0084507
1.89735e-19
0.0084507
4.06576e-19
0.0084507
-3.52366e-19
0.0084507
-4.33681e-19
0.0084507
-1.43657e-18
0.0084507
-1.70762e-18
0.0084507
-1.27394e-18
0.0084507
-1.16552e-18
0.0084507
-9.48677e-19
0.0084507
2.57498e-18
0.0084507
3.79471e-19
0.0084507
6.7329e-17
0.0084507
5.17707e-16
0.0084507
3.4801e-15
0.0084507
2.07659e-14
0.0084507
1.68923e-13
0.0084507
1.0292e-12
0.0084507
1.34931e-11
0.0084507
7.304e-12
0.00845071
8.27965e-10
0.0084507
2.89059e-09
0.0084507
2.67111e-08
0.00845074
1.61911e-07
-2.2283e-06
0.00845081
0.0084507
-3.79471e-19
0.0084507
-6.50521e-19
0.0084507
-5.42101e-19
0.0084507
-1.35525e-19
0.0084507
1.89735e-19
0.0084507
3.52366e-19
0.0084507
3.25261e-19
0.0084507
2.1684e-19
0.0084507
1.35525e-19
0.0084507
-5.42101e-20
0.0084507
-1.35525e-19
0.0084507
2.60209e-18
0.0084507
1.46367e-18
0.0084507
9.0314e-17
0.0084507
1.95048e-16
0.0084507
8.0296e-16
0.0084507
5.6236e-14
0.0084507
-5.61235e-13
0.0084507
3.56001e-12
0.0084507
6.52224e-12
0.0084507
1.83781e-10
0.00845071
5.14937e-10
0.00845075
5.0885e-09
0.00845088
2.60617e-08
1.17327e-07
0.00844815
0.0084507
4.06576e-19
0.0084507
4.60786e-19
0.0084507
5.96311e-19
0.0084507
7.58942e-19
0.0084507
7.86047e-19
0.0084507
7.86047e-19
0.0084507
7.04731e-19
0.0084507
7.86047e-19
0.0084507
4.87891e-19
0.0084507
8.13152e-20
0.0084507
-1.35525e-19
0.0084507
6.50521e-19
0.0084507
-1.17094e-17
0.0084507
2.72948e-17
0.0084507
1.01617e-16
0.0084507
1.33281e-15
0.0084507
9.51911e-15
0.0084507
2.86023e-14
0.0084507
6.34004e-13
0.0084507
9.77138e-13
0.0084507
2.32321e-11
0.0084507
2.20411e-10
0.00845071
-2.18731e-10
0.00845067
-4.25121e-10
-6.98207e-08
0.0084508
0.0084507
1.0842e-19
0.0084507
-1.0842e-19
0.0084507
-5.14996e-19
0.0084507
-1.32815e-18
0.0084507
-9.75782e-19
0.0084507
-9.75782e-19
0.0084507
-3.52366e-19
0.0084507
-1.89735e-19
0.0084507
2.98156e-19
0.0084507
6.77626e-19
0.0084507
1.0842e-18
0.0084507
2.19551e-18
0.0084507
1.6263e-18
0.0084507
6.966e-18
0.0084507
1.82688e-17
0.0084507
5.62701e-17
0.0084507
1.0201e-15
0.0084507
-2.30315e-14
0.0084507
1.13297e-13
0.0084507
-1.28977e-15
0.0084507
1.41039e-13
0.0084507
1.15996e-11
0.0084507
5.01815e-11
0.00845069
4.24761e-10
1.26029e-09
0.00845061
0.0084507
-4.06576e-19
0.0084507
-9.75782e-19
0.0084507
-8.40257e-19
0.0084507
-1.32815e-18
0.0084507
-1.43657e-18
0.0084507
-1.57209e-18
0.0084507
-1.16552e-18
0.0084507
-2.33103e-18
0.0084507
-2.30393e-18
0.0084507
-2.00577e-18
0.0084507
-1.81604e-18
0.0084507
-1.73472e-18
0.0084507
-3.82181e-18
0.0084507
6.23416e-19
0.0084507
6.74916e-18
0.0084507
1.18964e-16
0.0084507
5.93031e-16
0.0084507
6.07831e-15
0.0084507
5.34501e-14
0.0084507
3.73888e-13
0.0084507
2.76385e-12
0.0084507
2.86109e-11
0.0084507
-4.28833e-11
0.00845068
7.75804e-10
5.63753e-09
0.00845062
0.0084507
-1.35525e-19
0.0084507
-2.71051e-19
0.0084507
-1.6263e-19
0.0084507
-2.71051e-20
0.0084507
1.0842e-19
0.0084507
-3.79471e-19
0.0084507
-1.89735e-19
0.0084507
-1.02999e-18
0.0084507
-1.16552e-18
0.0084507
-1.92446e-18
0.0084507
-2.00577e-18
0.0084507
-3.00866e-18
0.0084507
-4.3097e-18
0.0084507
-1.27394e-18
0.0084507
4.87891e-19
0.0084507
4.60244e-17
0.0084507
3.76571e-16
0.0084507
2.82267e-15
0.0084507
1.93997e-14
0.0084507
2.12925e-13
0.0084507
1.35548e-12
0.0084507
1.52229e-11
0.0084507
5.13503e-11
0.0084507
-2.46144e-10
4.25428e-09
0.00845069
0.0084507
2.43945e-19
0.0084507
1.89735e-19
0.0084507
1.6263e-19
0.0084507
1.35525e-19
0.0084507
1.89735e-19
0.0084507
-5.96311e-19
0.0084507
-9.48677e-19
0.0084507
-1.24683e-18
0.0084507
-1.5992e-18
0.0084507
-1.97867e-18
0.0084507
-2.38524e-18
0.0084507
-2.54788e-18
0.0084507
-2.62919e-18
0.0084507
-1.11131e-18
0.0084507
-5.69206e-19
0.0084507
-4.98733e-18
0.0084507
-8.08002e-17
0.0084507
1.75158e-15
0.0084507
-6.37934e-15
0.0084507
6.52374e-14
0.0084507
-3.06864e-13
0.0084507
-2.96518e-12
0.0084507
2.72886e-11
0.0084507
-1.56038e-10
1.21199e-09
0.00845069
0.0084507
1.89735e-19
0.0084507
5.96311e-19
0.0084507
5.42101e-19
0.0084507
5.42101e-19
0.0084507
7.31836e-19
0.0084507
2.71051e-19
0.0084507
-3.79471e-19
0.0084507
-5.69206e-19
0.0084507
-7.31836e-19
0.0084507
-8.94467e-19
0.0084507
-1.13841e-18
0.0084507
-1.13841e-18
0.0084507
-1.92446e-18
0.0084507
-3.06287e-18
0.0084507
-3.55076e-18
0.0084507
-3.17129e-18
0.0084507
-1.46367e-17
0.0084507
5.36897e-16
0.0084507
-7.46961e-16
0.0084507
2.1828e-14
0.0084507
-5.09003e-15
0.0084507
1.90276e-13
0.0084507
1.13686e-11
0.0084507
-1.08416e-10
3.66469e-10
0.0084507
0.0084507
7.52316e-36
0.0084507
2.43945e-19
0.0084507
1.89735e-19
0.0084507
5.42101e-20
0.0084507
1.0842e-19
0.0084507
2.71051e-20
0.0084507
5.42101e-19
0.0084507
8.40257e-19
0.0084507
8.13152e-19
0.0084507
-1.0842e-19
0.0084507
-5.14996e-19
0.0084507
-1.27394e-18
0.0084507
-1.21973e-18
0.0084507
-3.03577e-18
0.0084507
-4.36391e-18
0.0084507
-2.57498e-18
0.0084507
1.76996e-17
0.0084507
6.47269e-17
0.0084507
1.07233e-15
0.0084507
6.75054e-15
0.0084507
8.91134e-14
0.0084507
5.11828e-13
0.0084507
3.40752e-12
0.0084507
-2.58376e-12
8.81857e-11
0.0084507
0.0084507
-3.52366e-19
0.0084507
-7.58942e-19
0.0084507
-1.68051e-18
0.0084507
-2.03288e-18
0.0084507
-2.41235e-18
0.0084507
-2.62919e-18
0.0084507
-2.11419e-18
0.0084507
-2.24972e-18
0.0084507
-1.92446e-18
0.0084507
-1.6263e-18
0.0084507
-1.0842e-18
0.0084507
-7.04731e-19
0.0084507
-2.71051e-20
0.0084507
-6.77626e-19
0.0084507
-1.11131e-18
0.0084507
-5.69206e-19
0.0084507
5.82759e-18
0.0084507
-3.52366e-19
0.0084507
4.34413e-16
0.0084507
2.09286e-15
0.0084507
3.11105e-14
0.0084507
1.85306e-13
0.0084507
9.72125e-13
0.0084507
-2.88475e-13
2.56507e-11
0.0084507
0.0084507
0.0084507
0.0084507
0.0084507
0.0084507
0.0084507
0.0084507
0.0084507
0.0084507
0.0084507
0.0084507
0.0084507
0.0084507
0.0084507
0.0084507
0.0084507
0.0084507
0.0084507
0.0084507
0.0084507
0.0084507
0.0084507
0.0084507
0.0084507
0.0084507
0.00305163
0.00439289
5.11179e-05
0.00299504
-0.00139284
0.00145608
-0.00133024
-5.77071e-05
-0.00100468
-0.000306983
-0.00134832
0.000367647
-0.00224057
0.000972799
-0.00293445
0.000600091
-0.00335491
0.000400384
-0.00347561
0.000117624
-0.0035327
4.9128e-05
-0.00351458
-1.36607e-05
-0.00349568
1.38751e-06
-0.00347417
3.15138e-05
-0.00347357
5.78912e-06
-0.00355883
4.00918e-05
-0.0036339
5.10259e-05
-0.00366819
2.83571e-05
-0.00367943
6.99763e-06
-0.00367303
-6.33585e-06
-0.00367036
-3.76487e-06
-0.00366514
-1.65368e-06
-0.00367033
9.68199e-06
-0.00366428
2.97439e-06
-0.00367501
1.20779e-05
-0.00368373
9.8207e-06
-0.00369783
1.43743e-05
-0.0037041
5.02783e-06
-0.00372294
8.50366e-06
-0.003726
-8.22522e-07
-0.00374002
-8.1426e-06
-0.00374744
-2.26983e-05
-0.0037261
-3.96993e-05
-0.00367493
-5.92987e-05
-0.00362392
-6.86966e-05
-0.00351337
-0.000108138
-0.00341495
-9.70792e-05
-0.0032362
-0.000166858
-0.00305782
-0.000171066
-0.00288349
-0.000169465
-0.00263136
-0.000236647
-0.00236928
-0.000255214
-0.00204598
-0.000302929
-0.00173302
-0.000299869
-0.00146428
-0.000265845
-0.00114624
-0.000313234
-0.00075128
-0.000384825
-0.000371858
-0.000376878
3.3632e-05
-0.000405524
0.00043383
-0.000403279
0.00079527
-0.000361758
0.00114669
-0.00035259
0.00148296
-0.000333655
0.00180388
-0.00031944
0.00209882
-0.000295167
0.00237439
-0.000275338
0.00262974
-0.000254415
0.0028656
-0.000234383
0.00308273
-0.000215555
0.00328095
-0.000197476
0.00346394
-0.000182062
0.00363474
-0.000169522
0.00379282
-0.000157189
0.00393881
-0.000144902
0.00407354
-0.000133524
0.00419824
-0.000122966
0.00431416
-0.000113964
0.00442136
-0.000104666
0.00452036
-9.62119e-05
0.0046115
-8.81555e-05
0.00469584
-8.1404e-05
0.00477357
-7.50322e-05
0.00484616
-6.99174e-05
0.00491395
-6.5079e-05