/*--------------------------------*- C++ -*----------------------------------*\
| =========                 |                                                 |
| \\      /  F ield         | OpenFOAM: The Open Source CFD Toolbox           |
|  \\    /   O peration     | Version:  v2106                                 |
|   \\  /    A nd           | Website:  www.openfoam.com                      |
|    \\/     M anipulation  |                                                 |
\*---------------------------------------------------------------------------*/
FoamFile
{
    version     2.0;
    format      ascii;
    arch        "LSB;label=32;scalar=64";
    class       volScalarField;
    location    "8";
    object      rho;
}
// * * * * * * * * * * * * * * * * * * * * * * * * * * * * * * * * * * * * * //

dimensions      [1 -3 0 0 0 0 0];

internalField   nonuniform List<scalar> 
5250
(
1.40845
1.40845
1.40845
1.40845
1.40845
1.40845
1.40845
1.40845
1.40845
1.40842
1.4082
1.40646
1.3947
1.47867
2.05159
3.93601
7.96278
6.65342
6.88216
6.94821
6.89414
6.86148
6.81446
6.76121
6.71929
1.40845
1.40845
1.40845
1.40845
1.40845
1.40845
1.40845
1.40845
1.40845
1.40843
1.40821
1.40655
1.3947
1.47545
2.03915
3.86298
7.99841
6.66677
6.91092
6.97436
6.91556
6.87483
6.81983
6.76307
6.72001
1.40845
1.40845
1.40845
1.40845
1.40845
1.40845
1.40845
1.40845
1.40845
1.40843
1.40821
1.40678
1.39478
1.46812
2.00832
3.6917
7.98806
6.67826
6.94073
7.01327
6.95136
6.89646
6.8238
6.75473
6.70827
1.40845
1.40845
1.40845
1.40845
1.40845
1.40845
1.40845
1.40845
1.40845
1.40843
1.4082
1.40719
1.39514
1.45831
1.96135
3.50822
7.87657
6.6352
6.93546
7.05477
6.99726
6.93063
6.82313
6.74228
6.6862
1.40845
1.40845
1.40845
1.40845
1.40845
1.40845
1.40845
1.40845
1.40845
1.40844
1.40823
1.40742
1.39554
1.4465
1.90106
3.27499
7.68187
6.54428
6.84561
7.03264
7.02842
6.96619
6.83806
6.71563
6.65687
1.40845
1.40845
1.40845
1.40845
1.40845
1.40845
1.40845
1.40845
1.40845
1.40844
1.40831
1.40732
1.3958
1.43392
1.82783
2.98322
7.40597
6.42052
6.70773
6.94887
6.98789
6.98194
6.85143
6.69391
6.60659
1.40845
1.40845
1.40845
1.40845
1.40845
1.40845
1.40845
1.40845
1.40845
1.40844
1.40832
1.40758
1.39698
1.42331
1.77083
2.70062
6.97041
6.27053
6.50869
6.80771
6.91465
6.95695
6.85112
6.6487
6.55118
1.40845
1.40845
1.40845
1.40845
1.40845
1.40845
1.40845
1.40845
1.40845
1.40845
1.40829
1.40797
1.39867
1.41434
1.71468
2.47921
6.58597
6.1123
6.29346
6.5699
6.80749
6.86455
6.80256
6.61388
6.45374
1.40845
1.40845
1.40845
1.40845
1.40845
1.40845
1.40845
1.40845
1.40845
1.40845
1.40832
1.40812
1.40036
1.4067
1.65263
2.2894
6.21664
5.9848
6.07108
6.29452
6.58084
6.74156
6.68889
6.48196
6.32013
1.40845
1.40845
1.40845
1.40845
1.40845
1.40845
1.40845
1.40845
1.40845
1.40845
1.40833
1.40828
1.4016
1.40338
1.59538
2.11788
5.78476
6.04185
6.00095
6.05471
6.28307
6.526
6.50259
6.44136
6.09518
1.40845
1.40845
1.40845
1.40845
1.40845
1.40845
1.40845
1.40845
1.40845
1.40844
1.40841
1.40808
1.40493
1.39875
1.53644
1.92882
5.05795
6.23904
5.99283
5.91984
6.01304
6.2143
6.24107
6.23175
5.09149
1.40845
1.40845
1.40845
1.40845
1.40845
1.40845
1.40845
1.40845
1.40845
1.40845
1.40843
1.40813
1.40681
1.39314
1.48142
1.83627
4.26106
6.49987
5.97004
5.833
5.82528
5.90324
5.80903
5.6625
5.1849
1.40845
1.40845
1.40845
1.40845
1.40845
1.40845
1.40845
1.40845
1.40845
1.40845
1.40843
1.40829
1.40724
1.39551
1.43983
1.84428
3.34216
6.76722
6.03205
5.85724
5.74072
5.70807
5.58135
5.35214
5.24176
1.40845
1.40845
1.40845
1.40845
1.40845
1.40845
1.40845
1.40845
1.40845
1.40845
1.40844
1.40833
1.40776
1.39803
1.41755
1.73326
2.65632
6.34919
6.0483
5.8982
5.70761
5.58995
5.41675
5.19096
5.09037
1.40845
1.40845
1.40845
1.40845
1.40845
1.40845
1.40845
1.40845
1.40845
1.40845
1.40845
1.40831
1.40828
1.40087
1.40673
1.60519
2.17698
5.49723
6.03129
5.94156
5.7007
5.49513
5.27892
5.06089
4.87975
1.40845
1.40845
1.40845
1.40845
1.40845
1.40845
1.40845
1.40845
1.40845
1.40845
1.40845
1.40841
1.40814
1.40511
1.3985
1.51196
1.82177
4.3569
6.03694
5.98266
5.73865
5.4673
5.22016
4.9944
4.73924
1.40845
1.40845
1.40845
1.40845
1.40845
1.40845
1.40845
1.40845
1.40845
1.40845
1.40845
1.40845
1.40816
1.4077
1.39361
1.43919
1.74795
3.26134
5.89296
5.82574
5.63084
5.43742
5.20712
4.95538
4.67423
1.40845
1.40845
1.40845
1.40845
1.40845
1.40845
1.40845
1.40845
1.40845
1.40845
1.40845
1.40845
1.40827
1.40808
1.39862
1.41585
1.70816
2.47293
5.44476
5.71565
5.66908
5.45852
5.2215
4.96176
4.67145
1.40845
1.40845
1.40845
1.40845
1.40845
1.40845
1.40845
1.40845
1.40845
1.40845
1.40845
1.40845
1.40839
1.40806
1.40435
1.39952
1.55088
1.94764
4.42474
5.72632
5.73296
5.49052
5.24057
4.97971
4.69038
1.40845
1.40845
1.40845
1.40845
1.40845
1.40845
1.40845
1.40845
1.40845
1.40845
1.40845
1.40844
1.40847
1.408
1.408
1.38852
1.46374
1.62731
3.29315
5.51906
5.59312
5.39002
5.18451
4.96309
4.7126
1.40845
1.40845
1.40845
1.40845
1.40845
1.40845
1.40845
1.40845
1.40845
1.40845
1.40845
1.40845
1.40844
1.40835
1.4077
1.40212
1.4123
1.64842
2.32718
4.9109
5.40989
5.41107
5.20461
4.98122
4.74092
1.40845
1.40845
1.40845
1.40845
1.40845
1.40845
1.40845
1.40845
1.40845
1.40845
1.40845
1.40845
1.40843
1.40852
1.40746
1.40932
1.37352
1.54052
1.82764
3.83064
5.3533
5.41329
5.23051
5.02233
4.78763
1.40845
1.40845
1.40845
1.40845
1.40845
1.40845
1.40845
1.40845
1.40845
1.40845
1.40845
1.40845
1.40845
1.40844
1.40829
1.4075
1.40015
1.43015
1.65587
2.68171
4.99889
5.16847
5.17773
5.02127
4.81826
1.40845
1.40845
1.40845
1.40845
1.40845
1.40845
1.40845
1.40845
1.40845
1.40845
1.40845
1.40845
1.40845
1.40842
1.40859
1.407
1.41075
1.36226
1.58966
2.00096
4.05602
5.20716
5.2111
5.05248
4.85917
1.40845
1.40845
1.40845
1.40845
1.40845
1.40845
1.40845
1.40845
1.40845
1.40845
1.40845
1.40845
1.40845
1.40845
1.40843
1.40823
1.40736
1.39738
1.44753
1.55634
2.93127
4.95689
5.056
5.02764
4.8731
1.40845
1.40845
1.40845
1.40845
1.40845
1.40845
1.40845
1.40845
1.40845
1.40845
1.40845
1.40845
1.40845
1.40845
1.40842
1.40863
1.40684
1.41099
1.35982
1.54121
2.03286
4.05136
5.03441
5.05198
4.90486
1.40845
1.40845
1.40845
1.40845
1.40845
1.40845
1.40845
1.40845
1.40845
1.40845
1.40845
1.40845
1.40845
1.40845
1.40845
1.40843
1.40821
1.40746
1.39592
1.45659
1.53187
2.94208
4.7761
4.8939
4.87852
1.40845
1.40845
1.40845
1.40845
1.40845
1.40845
1.40845
1.40845
1.40845
1.40845
1.40845
1.40845
1.40845
1.40845
1.40844
1.40842
1.40886
1.4067
1.41124
1.36066
1.51575
2.002
3.88849
4.84269
4.87739
1.40845
1.40845
1.40845
1.40845
1.40845
1.40845
1.40845
1.40845
1.40845
1.40845
1.40845
1.40845
1.40845
1.40845
1.40845
1.40845
1.40844
1.40821
1.40774
1.39533
1.45025
1.50854
2.78957
4.5327
4.70414
1.40845
1.40845
1.40845
1.40845
1.40845
1.40845
1.40845
1.40845
1.40845
1.40845
1.40845
1.40845
1.40845
1.40845
1.40845
1.40845
1.40843
1.40881
1.40615
1.41006
1.36747
1.50866
1.90526
3.56547
4.65821
1.40845
1.40845
1.40845
1.40845
1.40845
1.40845
1.40845
1.40845
1.40845
1.40845
1.40845
1.40845
1.40845
1.40845
1.40845
1.40845
1.40845
1.40845
1.4082
1.4079
1.3955
1.44138
1.53804
2.50996
4.19182
1.40845
1.40845
1.40845
1.40845
1.40845
1.40845
1.40845
1.40845
1.40845
1.40845
1.40845
1.40845
1.40845
1.40845
1.40845
1.40845
1.40845
1.40846
1.4087
1.40522
1.40825
1.36768
1.51254
1.7609
3.20841
1.40845
1.40845
1.40845
1.40845
1.40845
1.40845
1.40845
1.40845
1.40845
1.40845
1.40845
1.40845
1.40845
1.40845
1.40845
1.40845
1.40845
1.40845
1.40844
1.40827
1.40799
1.39939
1.41448
1.58328
2.24896
1.40845
1.40845
1.40845
1.40845
1.40845
1.40845
1.40845
1.40845
1.40845
1.40845
1.40845
1.40845
1.40845
1.40845
1.40845
1.40845
1.40845
1.40845
1.40846
1.4085
1.40781
1.40701
1.38916
1.47614
1.59174
1.40845
1.40845
1.40845
1.40845
1.40845
1.40845
1.40845
1.40845
1.40845
1.40845
1.40845
1.40845
1.40845
1.40845
1.40845
1.40845
1.40845
1.40845
1.40844
1.40845
1.40831
1.40716
1.42938
1.35357
1.45029
1.40845
1.40845
1.40845
1.40845
1.40845
1.40845
1.40845
1.40845
1.40845
1.40845
1.40845
1.40845
1.40845
1.40845
1.40845
1.40845
1.40845
1.40845
1.40845
1.40845
1.40843
1.4081
1.40834
1.39806
1.41684
1.40845
1.40845
1.40845
1.40845
1.40845
1.40845
1.40845
1.40845
1.40845
1.40845
1.40845
1.40845
1.40845
1.40845
1.40845
1.40845
1.40845
1.40845
1.40845
1.40845
1.40844
1.40845
1.40824
1.4078
1.38912
1.40845
1.40845
1.40845
1.40845
1.40845
1.40845
1.40845
1.40845
1.40845
1.40845
1.40845
1.40845
1.40845
1.40845
1.40845
1.40845
1.40845
1.40845
1.40845
1.40845
1.40847
1.40838
1.40842
1.40685
1.43208
1.40845
1.40845
1.40845
1.40845
1.40845
1.40845
1.40845
1.40845
1.40845
1.40845
1.40845
1.40845
1.40845
1.40845
1.40845
1.40845
1.40845
1.40845
1.40845
1.40845
1.40845
1.40844
1.40856
1.4079
1.40893
1.40845
1.40845
1.40845
1.40845
1.40845
1.40845
1.40845
1.40845
1.40845
1.40845
1.40845
1.40845
1.40845
1.40845
1.40845
1.40845
1.40845
1.40845
1.40845
1.40845
1.40845
1.40845
1.40845
1.40843
1.40861
1.40845
1.40845
1.40845
1.40845
1.40845
1.40845
1.40845
1.40845
1.40845
1.40845
1.40845
1.40845
1.40845
1.40845
1.40845
1.40845
1.40845
1.40845
1.40845
1.40845
1.40845
1.40845
1.40845
1.40853
1.40768
1.40845
1.40845
1.40845
1.40845
1.40845
1.40845
1.40845
1.40845
1.40845
1.40845
1.40845
1.40845
1.40845
1.40845
1.40845
1.40845
1.40845
1.40845
1.40845
1.40845
1.40845
1.40845
1.40845
1.40846
1.40839
1.40845
1.40845
1.40845
1.40845
1.40845
1.40845
1.40845
1.40845
1.40845
1.40845
1.40845
1.40845
1.40845
1.40845
1.40845
1.40845
1.40845
1.40845
1.40845
1.40845
1.40845
1.40845
1.40845
1.40845
1.40844
1.40845
1.40845
1.40845
1.40845
1.40845
1.40845
1.40845
1.40845
1.40845
1.40845
1.40845
1.40845
1.40845
1.40845
1.40845
1.40845
1.40845
1.40845
1.40845
1.40845
1.40845
1.40845
1.40845
1.40845
1.40841
1.40845
1.40845
1.40845
1.40845
1.40845
1.40845
1.40845
1.40845
1.40845
1.40845
1.40845
1.40845
1.40845
1.40845
1.40845
1.40845
1.40845
1.40845
1.40845
1.40845
1.40845
1.40845
1.40845
1.40845
1.40845
1.40845
1.40845
1.40845
1.40845
1.40845
1.40845
1.40845
1.40845
1.40845
1.40845
1.40845
1.40845
1.40845
1.40845
1.40845
1.40845
1.40845
1.40845
1.40845
1.40845
1.40845
1.40845
1.40845
1.40845
1.40845
1.40845
1.40845
1.40845
1.40845
1.40845
1.40845
1.40845
1.40845
1.40845
1.40845
1.40845
1.40845
1.40845
1.40845
1.40845
1.40845
1.40845
1.40845
1.40845
1.40845
1.40845
1.40845
1.40845
1.40845
1.40845
1.40845
1.40845
1.40845
1.40845
1.40845
1.40845
1.40845
1.40845
1.40845
1.40845
1.40845
1.40845
1.40845
1.40845
1.40845
1.40845
1.40845
1.40845
1.40845
1.40845
1.40845
1.40845
1.40845
1.40845
1.40845
1.40845
1.40845
1.40845
1.40845
1.40845
1.40845
1.40845
1.40845
1.40845
1.40845
1.40845
1.40845
1.40845
1.40845
1.40845
1.40845
1.40845
1.40845
1.40845
1.40845
1.40845
1.40845
1.40845
1.40845
1.40845
1.40845
1.40845
1.40845
1.40845
1.40845
1.40845
1.40845
1.40845
1.40845
1.40845
1.40845
1.40845
1.40845
1.40845
1.40845
1.40845
1.40845
1.40845
1.40845
1.40845
1.40845
1.40845
1.40845
1.40845
1.40845
1.7855
1.7471
2.02151
1.77356
1.98255
1.89317
1.7731
1.48234
1.4299
1.42956
1.43172
1.45241
1.45218
1.43276
1.37465
1.32229
1.29674
1.29102
1.29131
1.29407
1.29318
1.29268
1.2883
1.28449
1.2764
1.27438
1.27312
1.27612
1.28107
1.29796
1.31515
1.35039
1.40052
1.44805
1.49927
1.56561
1.6207
1.70045
1.76254
1.82282
1.90361
1.97033
2.05767
2.13116
2.19211
2.24522
2.29982
2.34576
2.37758
2.40465
2.44164
2.46163
2.48102
2.49595
2.50346
2.50846
2.50976
2.50834
2.50465
2.49819
2.4898
2.48042
2.46951
2.45755
2.44429
2.43028
2.41546
2.40005
2.38442
2.36838
2.35251
2.33617
2.32002
2.30383
2.2879
2.27196
2.25624
2.24035
2.22467
2.20884
2.19325
2.17738
2.16175
2.1458
2.13006
2.11406
2.0982
2.08217
2.06624
2.05011
2.03402
2.01765
2.0013
1.98456
1.96791
1.95074
1.93353
1.91855
1.89349
1.87243
2.73073
2.38529
1.98225
1.84786
2.06157
1.91868
1.74827
1.35622
1.27182
1.25951
1.30712
1.31768
1.31485
1.27653
1.21836
1.19556
1.17647
1.16973
1.17047
1.172
1.17066
1.17081
1.16666
1.16351
1.15563
1.15058
1.14822
1.15248
1.15637
1.173
1.18728
1.21187
1.25039
1.28812
1.33369
1.40478
1.4579
1.54888
1.62742
1.69728
1.77952
1.85558
1.91161
2.01153
2.09047
2.15748
2.23229
2.30757
2.36031
2.42039
2.47738
2.52115
2.55644
2.58801
2.60843
2.62555
2.63897
2.64637
2.65152
2.65288
2.64987
2.64584
2.64083
2.63329
2.62339
2.61264
2.60171
2.58995
2.5769
2.56184
2.54664
2.53028
2.51399
2.4974
2.48104
2.46447
2.44812
2.43146
2.41499
2.3985
2.3823
2.36604
2.35013
2.33401
2.31814
2.3019
2.28566
2.26918
2.2525
2.23554
2.2181
2.20032
2.18203
2.16336
2.14436
2.12496
2.10524
2.08794
2.05816
2.03299
3.65134
2.87346
2.44246
2.14889
2.09275
1.95674
1.71482
1.34437
1.20849
1.1981
1.23739
1.26673
1.31659
1.28969
1.2603
1.15393
1.10814
1.10015
1.10283
1.11572
1.11737
1.11876
1.11398
1.11078
1.10166
1.1005
1.0973
1.10083
1.10437
1.11594
1.1267
1.15446
1.19845
1.24305
1.28682
1.35376
1.40541
1.45554
1.53948
1.60637
1.69572
1.7973
1.92708
2.06374
2.18846
2.29683
2.39745
2.51596
2.5901
2.66575
2.7378
2.79345
2.83697
2.87835
2.90023
2.91772
2.93045
2.93815
2.94325
2.94577
2.94236
2.93512
2.92662
2.91673
2.90463
2.89106
2.87668
2.86158
2.84601
2.83037
2.81515
2.79871
2.78158
2.76319
2.74416
2.72416
2.70418
2.6842
2.66457
2.64511
2.62603
2.60701
2.58834
2.56964
2.55108
2.53226
2.51343
2.49442
2.47534
2.45615
2.4369
2.41747
2.39789
2.37779
2.35708
2.33585
2.31404
2.29416
2.26139
2.23152
4.2665
3.41426
2.8983
2.47842
2.28905
2.13046
1.93447
1.61737
1.405
1.28221
1.25421
1.27173
1.28333
1.27122
1.22229
1.11844
1.08143
1.08441
1.09012
1.10854
1.13034
1.1408
1.12834
1.12767
1.11651
1.11344
1.09786
1.10226
1.10508
1.12345
1.13139
1.14076
1.15847
1.18742
1.23109
1.29464
1.36965
1.47478
1.60581
1.73296
1.86046
2.0084
2.15122
2.28871
2.44112
2.54518
2.64906
2.75178
2.84734
2.92155
2.98755
3.03336
3.08502
3.1209
3.14259
3.15809
3.16879
3.17406
3.17291
3.16978
3.16359
3.15471
3.14507
3.13395
3.11826
3.09992
3.08106
3.06211
3.04382
3.026
3.00833
2.99047
2.97191
2.95217
2.93182
2.91088
2.88944
2.86741
2.84557
2.8237
2.80214
2.7809
2.76002
2.73946
2.71903
2.69861
2.67816
2.65767
2.63707
2.61628
2.59519
2.57379
2.55206
2.53016
2.50812
2.48599
2.46349
2.44211
2.40877
2.37425
4.41791
3.76002
3.24614
2.88077
2.6434
2.3932
2.19243
1.84459
1.59615
1.44562
1.37807
1.37075
1.33557
1.31565
1.29221
1.22749
1.16454
1.11644
1.0968
1.101
1.10513
1.11272
1.11351
1.11672
1.10982
1.10982
1.10419
1.11331
1.11418
1.11614
1.11951
1.13523
1.16608
1.22226
1.29273
1.37904
1.48706
1.61608
1.75368
1.89264
2.03724
2.19248
2.34764
2.49567
2.64236
2.7432
2.84713
2.94609
3.03651
3.11013
3.1728
3.22544
3.26076
3.28999
3.31802
3.32744
3.33191
3.3346
3.33304
3.32763
3.32064
3.31043
3.29645
3.28062
3.26364
3.2465
3.22972
3.21049
3.18764
3.16579
3.14487
3.12432
3.10396
3.08369
3.06369
3.04247
3.01883
2.99508
2.97188
2.94886
2.926
2.90354
2.88155
2.85988
2.83835
2.81686
2.79529
2.77352
2.75145
2.72912
2.70656
2.68382
2.66094
2.6381
2.6152
2.59214
2.56864
2.54475
2.51191
2.47431
4.4466
3.94784
3.50718
3.15543
2.96679
2.72359
2.51164
2.18221
1.87596
1.68079
1.58029
1.53256
1.46764
1.4111
1.35428
1.27396
1.21395
1.17926
1.16036
1.15567
1.13837
1.13564
1.12699
1.13034
1.12045
1.12371
1.1116
1.11379
1.11556
1.1197
1.13474
1.157
1.19788
1.25219
1.33368
1.43973
1.55822
1.70086
1.84468
2.00342
2.17806
2.33124
2.49288
2.62424
2.74729
2.87248
2.98045
3.05617
3.13088
3.21061
3.28415
3.33983
3.38699
3.40432
3.41934
3.4274
3.43637
3.44195
3.44109
3.42959
3.41898
3.40834
3.39612
3.38276
3.3668
3.34685
3.3238
3.29947
3.27717
3.25625
3.2358
3.2151
3.19364
3.17123
3.148
3.12393
3.10001
3.07678
3.05368
3.03051
3.00714
2.98399
2.96129
2.93888
2.9165
2.89409
2.87159
2.84898
2.82623
2.80338
2.78043
2.75737
2.73408
2.71036
2.68636
2.66218
2.63776
2.61213
2.58054
2.54076
4.38543
4.03592
3.63998
3.35569
3.18384
2.98335
2.79031
2.556
2.24542
2.00268
1.84711
1.76267
1.68823
1.60123
1.52843
1.43554
1.35235
1.2923
1.24885
1.22968
1.20696
1.19305
1.17168
1.16252
1.14532
1.14381
1.13358
1.14011
1.14799
1.15975
1.17425
1.21245
1.27445
1.36332
1.47401
1.59347
1.69653
1.80866
1.92293
2.03928
2.15639
2.27983
2.41379
2.56076
2.71865
2.9049
3.04444
3.11691
3.20344
3.25617
3.31677
3.37801
3.43741
3.46923
3.47039
3.48113
3.49164
3.49115
3.49105
3.48713
3.47722
3.46744
3.4545
3.43525
3.41442
3.39316
3.37243
3.35232
3.33123
3.30967
3.28785
3.26565
3.243
3.21993
3.1966
3.17317
3.14892
3.12448
3.10049
3.07651
3.0527
3.0293
3.00634
2.98367
2.9611
2.93849
2.91576
2.89286
2.86976
2.84648
2.82298
2.79929
2.77545
2.75154
2.72756
2.70343
2.67903
2.65321
2.62113
2.57946
4.34285
4.06881
3.71262
3.49851
3.3045
3.17406
3.00995
2.82732
2.57428
2.32692
2.11809
1.99764
1.91886
1.84038
1.75165
1.66105
1.55219
1.45378
1.38783
1.35404
1.32469
1.30939
1.27481
1.25265
1.22254
1.2149
1.20465
1.20787
1.23635
1.27861
1.32477
1.38985
1.48164
1.563
1.65537
1.7351
1.81255
1.88442
1.96701
2.03926
2.1209
2.21062
2.31191
2.42115
2.5536
2.71301
2.88809
3.10869
3.23519
3.27693
3.32057
3.35905
3.41968
3.47232
3.50544
3.50917
3.50287
3.50024
3.50487
3.50992
3.50463
3.48932
3.47205
3.45498
3.43942
3.42365
3.40304
3.38007
3.35692
3.33529
3.31445
3.29378
3.27208
3.24861
3.22344
3.19745
3.1724
3.14825
3.1245
3.10071
3.07709
3.05386
3.03094
3.00805
2.98519
2.96226
2.93919
2.91592
2.89247
2.86891
2.84533
2.82175
2.79804
2.77384
2.74937
2.72464
2.69964
2.67329
2.64081
2.59823
4.35622
4.07513
3.76036
3.58797
3.38209
3.27401
3.15189
2.99665
2.83269
2.59072
2.38667
2.23564
2.13448
2.0623
1.98702
1.89537
1.80473
1.69076
1.59576
1.54102
1.4992
1.46564
1.43553
1.39671
1.36794
1.33769
1.34673
1.36026
1.46989
1.54733
1.62737
1.72593
1.79647
1.81444
1.84638
1.88227
1.92637
1.9679
2.01644
2.06002
2.10954
2.15943
2.2152
2.28562
2.38174
2.48986
2.62811
2.78155
3.0394
3.25342
3.34501
3.35998
3.38343
3.40764
3.46946
3.50736
3.50379
3.50075
3.50259
3.49879
3.49307
3.48711
3.4822
3.4727
3.45047
3.42722
3.40451
3.38434
3.36584
3.34832
3.3297
3.307
3.2824
3.25734
3.23268
3.20888
3.18516
3.16121
3.13752
3.11386
3.09032
3.06694
3.04374
3.0206
2.99746
2.97417
2.95069
2.92707
2.90344
2.87982
2.85616
2.83235
2.80826
2.78377
2.75902
2.734
2.70869
2.68206
2.64934
2.60604
4.40457
4.12005
3.82369
3.63671
3.45181
3.34299
3.23574
3.10143
2.95316
2.77121
2.57348
2.40778
2.30652
2.23458
2.1617
2.09499
2.01376
1.92497
1.82585
1.74202
1.69455
1.65151
1.62739
1.58781
1.57259
1.54209
1.58825
1.64356
1.89522
1.99757
2.08125
2.13493
2.09182
2.05267
2.03761
2.03145
2.03319
2.04576
2.07511
2.10002
2.12215
2.14863
2.17492
2.21143
2.25172
2.30292
2.39546
2.52297
2.67164
2.84745
3.17328
3.39495
3.38888
3.39097
3.40325
3.4418
3.46313
3.47731
3.4878
3.48395
3.47812
3.47123
3.46492
3.45469
3.4351
3.41767
3.40411
3.39254
3.37682
3.3547
3.33007
3.30549
3.2815
3.25848
3.23709
3.21578
3.19218
3.16815
3.14469
3.12148
3.09823
3.07506
3.05199
3.02888
3.00556
2.98197
2.95828
2.9345
2.91062
2.88653
2.8623
2.83794
2.81345
2.78872
2.76375
2.73853
2.71308
2.6864
2.65376
2.60973
4.46251
4.17334
3.90869
3.6713
3.50838
3.38514
3.28943
3.17495
3.04564
2.8842
2.71621
2.54271
2.42723
2.33928
2.28957
2.23996
2.16268
2.09416
2.02053
1.93203
1.85857
1.82112
1.79256
1.77151
1.76733
1.79488
1.86119
2.25814
2.4335
2.49967
2.53228
2.49295
2.40796
2.34083
2.28985
2.24852
2.2206
2.19782
2.17352
2.15427
2.15639
2.16529
2.16411
2.17028
2.18016
2.20691
2.25021
2.29974
2.39007
2.54547
2.71835
2.99461
3.2865
3.42222
3.41343
3.39719
3.40738
3.42867
3.44877
3.47296
3.47172
3.45377
3.44144
3.43853
3.4325
3.42461
3.41411
3.39338
3.37131
3.34973
3.329
3.30842
3.28774
3.26825
3.24654
3.22291
3.19882
3.17467
3.15054
3.12714
3.10459
3.08246
3.05991
3.03644
3.01241
2.98803
2.96351
2.93916
2.915
2.89087
2.86668
2.84228
2.81753
2.79238
2.76711
2.74177
2.71627
2.68945
2.65656
2.6117
4.52959
4.24445
3.99328
3.74185
3.57225
3.41594
3.32001
3.21966
3.10162
2.97131
2.82415
2.66378
2.52902
2.43605
2.37597
2.31617
2.27375
2.22684
2.16078
2.06787
1.97955
1.94286
1.92395
1.92292
1.95138
2.08072
2.26854
2.89771
2.94795
2.95531
2.92242
2.81131
2.70851
2.62547
2.55358
2.4912
2.43853
2.3851
2.33133
2.29321
2.24266
2.19678
2.16423
2.16514
2.16883
2.17204
2.17735
2.19332
2.23884
2.30948
2.41745
2.58968
2.77938
3.18577
3.44198
3.45436
3.41272
3.41387
3.41923
3.44912
3.45591
3.45571
3.44938
3.44021
3.43468
3.4264
3.41539
3.39933
3.37971
3.36055
3.34114
3.32127
3.30063
3.27921
3.25674
3.23252
3.20898
3.18687
3.16563
3.14466
3.12277
3.09918
3.07469
3.04999
3.02513
3.00021
2.97554
2.95115
2.92664
2.90177
2.87656
2.85119
2.82579
2.80037
2.77488
2.74902
2.72263
2.69483
2.66098
2.61519
4.58949
4.30785
4.06002
3.81642
3.63363
3.46549
3.35919
3.25376
3.14185
3.01986
2.90433
2.76121
2.61836
2.51582
2.43552
2.39065
2.3506
2.29719
2.23536
2.1723
2.07916
2.04422
2.03412
2.05151
2.14227
2.29885
2.88088
3.29193
3.32401
3.2874
3.20002
3.07015
2.95546
2.85609
2.77037
2.6862
2.61248
2.53657
2.47591
2.41441
2.35569
2.30872
2.25503
2.21499
2.18007
2.16391
2.16313
2.16868
2.18083
2.20024
2.24076
2.32294
2.47369
2.66095
2.99373
3.34635
3.46028
3.45996
3.41433
3.4031
3.4107
3.44222
3.44305
3.44013
3.43874
3.43488
3.42554
3.4132
3.39618
3.37781
3.35978
3.33972
3.31968
3.29904
3.2776
3.25571
3.23439
3.21393
3.19249
3.16965
3.14621
3.12201
3.09711
3.07206
3.0475
3.02372
2.99956
2.97414
2.94785
2.92138
2.89497
2.86879
2.84269
2.81636
2.78959
2.76228
2.73452
2.70552
2.67021
2.62312
4.64564
4.38068
4.13588
3.89986
3.70148
3.53504
3.42036
3.30772
3.19467
3.07148
2.94274
2.84265
2.695
2.58025
2.5085
2.4519
2.4001
2.34544
2.30549
2.21683
2.15006
2.11867
2.12058
2.18795
2.42135
2.82697
3.46874
3.53406
3.53004
3.47562
3.39552
3.28436
3.17435
3.0656
2.95604
2.8636
2.76425
2.68018
2.60985
2.53273
2.46683
2.4138
2.36502
2.30627
2.25297
2.21313
2.19412
2.18009
2.17932
2.16993
2.17179
2.20492
2.26056
2.36704
2.5504
2.73948
3.17575
3.47896
3.48266
3.43881
3.40211
3.40135
3.40945
3.43137
3.43527
3.43303
3.42383
3.41428
3.39869
3.37946
3.36578
3.35207
3.33242
3.31129
3.29164
3.27287
3.25403
3.23441
3.21308
3.1897
3.16652
3.14373
3.12127
3.09884
3.07604
3.05024
3.02276
2.99556
2.96858
2.94183
2.91514
2.88856
2.86195
2.83509
2.80764
2.77979
2.75159
2.72221
2.68633
2.638
4.68183
4.43726
4.1993
3.97724
3.76434
3.60125
3.47522
3.36617
3.25471
3.13995
3.00452
2.89739
2.77412
2.64736
2.56409
2.50043
2.446
2.39729
2.34252
2.25822
2.2192
2.2127
2.25274
2.43378
2.71368
3.37359
3.6768
3.67813
3.64013
3.58857
3.52107
3.4364
3.3391
3.22244
3.10834
3.00525
2.90198
2.81502
2.72635
2.64763
2.58479
2.52964
2.45004
2.39015
2.35405
2.31325
2.287
2.24641
2.19371
2.16466
2.16561
2.17134
2.17741
2.21792
2.28776
2.42061
2.62186
2.92714
3.32335
3.46846
3.47453
3.38794
3.38794
3.3912
3.42298
3.42062
3.41062
3.39018
3.37311
3.36118
3.35126
3.34043
3.32582
3.3051
3.28177
3.26253
3.24665
3.23058
3.21146
3.18851
3.16437
3.1403
3.11652
3.09288
3.06905
3.04433
3.01877
2.99278
2.96676
2.94089
2.91485
2.8887
2.86259
2.83621
2.80885
2.78101
2.75289
2.72388
2.68911
2.6408
4.72227
4.49739
4.2577
4.04548
3.82835
3.66317
3.53044
3.42185
3.31312
3.20206
3.08526
2.95248
2.85464
2.7353
2.61518
2.55133
2.49029
2.42413
2.35272
2.31219
2.3045
2.33627
2.48334
2.70265
3.35858
3.74416
3.74814
3.73343
3.70624
3.66586
3.60787
3.53317
3.443
3.34246
3.24034
3.13287
3.03409
2.94181
2.84941
2.77356
2.70929
2.62503
2.55521
2.51118
2.4682
2.41411
2.34745
2.30184
2.26785
2.24242
2.20666
2.16316
2.16094
2.16636
2.1739
2.21911
2.31037
2.48462
2.66226
3.10973
3.43382
3.46092
3.45076
3.38917
3.36406
3.36097
3.36762
3.37003
3.36595
3.35608
3.34208
3.32977
3.31632
3.29953
3.28094
3.26417
3.24865
3.22845
3.2059
3.18302
3.16064
3.13818
3.11534
3.09125
3.06601
3.04091
3.01586
2.99045
2.96457
2.93879
2.91335
2.88818
2.86257
2.83513
2.80692
2.77872
2.75051
2.72154
2.68695
2.63768
4.74075
4.56117
4.32821
4.12013
3.89878
3.72836
3.59104
3.48126
3.37061
3.25875
3.14927
3.031
2.92072
2.80207
2.6879
2.60426
2.53247
2.4473
2.39273
2.38369
2.41481
2.54644
2.74016
3.38108
3.78398
3.788
3.77659
3.76271
3.74404
3.71445
3.66935
3.60689
3.53113
3.44515
3.35331
3.25658
3.16147
3.06731
2.97597
2.90063
2.81732
2.73778
2.68145
2.62937
2.54931
2.48462
2.44015
2.4011
2.36949
2.32693
2.27394
2.21345
2.18742
2.15699
2.14712
2.15064
2.17649
2.23974
2.3587
2.55237
2.78778
3.23072
3.46139
3.48062
3.3953
3.34418
3.33988
3.34678
3.35791
3.35805
3.34733
3.32431
3.30641
3.29207
3.27946
3.26693
3.25229
3.23217
3.20578
3.18263
3.16228
3.14216
3.12043
3.09605
3.07082
3.0437
3.01705
2.99078
2.96418
2.93761
2.91094
2.88405
2.85595
2.82749
2.79955
2.77201
2.74441
2.71586
2.68181
2.63197
4.74411
4.5905
4.39126
4.19185
3.97136
3.7819
3.65105
3.53716
3.42896
3.32037
3.21083
3.10396
3.00123
2.8726
2.76008
2.66054
2.53842
2.48703
2.47055
2.4877
2.60364
2.79074
3.41672
3.83103
3.85013
3.82346
3.80917
3.79678
3.781
3.7565
3.72047
3.67159
3.61052
3.53943
3.46073
3.37526
3.28575
3.19213
3.1045
3.01911
2.92911
2.86347
2.79917
2.7109
2.63712
2.59337
2.55046
2.49625
2.44427
2.38623
2.33564
2.28622
2.24637
2.19464
2.16408
2.13742
2.14223
2.14661
2.1729
2.26026
2.41465
2.59884
2.97927
3.35932
3.43582
3.43777
3.33709
3.2981
3.30192
3.31784
3.31827
3.31288
3.30159
3.28789
3.26856
3.24933
3.23437
3.2184
3.1984
3.17726
3.15475
3.13293
3.11117
3.08904
3.06614
3.04203
3.01464
2.98608
2.95846
2.93116
2.90391
2.87619
2.84812
2.81968
2.79125
2.76374
2.73626
2.70793
2.674
2.62345
4.72065
4.61032
4.46249
4.27386
4.05934
3.84662
3.70624
3.59117
3.48253
3.37661
3.26976
3.16068
3.06405
2.95847
2.86058
2.69421
2.59438
2.55568
2.57059
2.66903
2.86458
3.44732
3.93344
3.93994
3.92668
3.89752
3.87398
3.85542
3.83622
3.81343
3.78353
3.74434
3.6929
3.63093
3.55895
3.47958
3.3968
3.30959
3.22595
3.13272
3.05179
2.97277
2.8888
2.81793
2.76021
2.70324
2.62195
2.5628
2.5005
2.44985
2.402
2.35346
2.30553
2.26269
2.22686
2.17432
2.14541
2.1161
2.11894
2.13448
2.1808
2.28344
2.48012
2.67611
3.12365
3.40772
3.4202
3.38894
3.30944
3.27236
3.2733
3.2834
3.28625
3.28274
3.26986
3.25195
3.22882
3.21086
3.19177
3.17002
3.14929
3.12812
3.1054
3.0814
3.05711
3.03271
3.00761
2.98098
2.952
2.92424
2.89683
2.86909
2.84026
2.81111
2.78185
2.75413
2.72635
2.69758
2.66378
2.6132
4.68347
4.59038
4.47341
4.32918
4.14948
3.93007
3.76184
3.64946
3.53651
3.4257
3.32623
3.22494
3.11758
3.01469
2.89949
2.75418
2.67961
2.67025
2.7466
2.96353
3.49239
4.05405
4.06273
4.04952
4.02073
3.97687
3.94553
3.92168
3.8975
3.87232
3.84338
3.80849
3.76494
3.71221
3.64815
3.57643
3.49741
3.41567
3.32469
3.2375
3.15031
3.0551
2.98702
2.91917
2.85021
2.76613
2.69768
2.63822
2.56814
2.5104
2.46052
2.41125
2.36551
2.31432
2.26559
2.2238
2.17511
2.13143
2.12067
2.09852
2.10571
2.14
2.20864
2.3496
2.55728
2.81231
3.22693
3.4084
3.42344
3.33383
3.26901
3.25663
3.26101
3.27673
3.27652
3.26419
3.24596
3.21412
3.18882
3.16622
3.14668
3.12743
3.10425
3.07901
3.05346
3.02858
3.00233
2.97541
2.94616
2.91805
2.89051
2.86203
2.83146
2.80258
2.77385
2.74531
2.71762
2.68829
2.65343
2.60239
4.56073
4.58353
4.47751
4.35782
4.22055
4.01945
3.81961
3.70188
3.59497
3.46792
3.37145
3.28174
3.18226
3.0828
2.9225
2.82439
2.8023
2.85065
3.08191
3.49661
4.19368
4.20994
4.19821
4.16608
4.10369
4.05988
4.02701
3.99556
3.96298
3.93224
3.9003
3.86565
3.82578
3.77858
3.72286
3.65765
3.58323
3.50221
3.41693
3.33114
3.23728
3.15512
3.07742
2.99432
2.9116
2.83928
2.77832
2.70977
2.64889
2.59056
2.53483
2.47906
2.43076
2.38382
2.33568
2.28926
2.24386
2.20638
2.16998
2.12359
2.09286
2.09836
2.10575
2.14206
2.22953
2.38727
2.55612
3.00263
3.36074
3.38939
3.37678
3.28362
3.23062
3.23034
3.23921
3.24115
3.22929
3.20882
3.18203
3.15498
3.13453
3.12002
3.10284
3.08096
3.05656
3.02215
2.99051
2.96281
2.93504
2.90727
2.88016
2.85211
2.82107
2.79059
2.76304
2.73477
2.70687
2.67761
2.64266
2.59146
4.4853
4.53916
4.49291
4.38077
4.26451
4.12333
3.90715
3.74272
3.64587
3.5203
3.4117
3.3239
3.24157
3.11439
2.99317
2.94996
2.97756
3.1786
3.53818
4.2921
4.37716
4.36709
4.32465
4.24319
4.18994
4.1467
4.10542
4.06009
4.01819
3.9821
3.9479
3.91223
3.87384
3.82964
3.77907
3.71971
3.65314
3.57885
3.50004
3.41467
3.33084
3.24572
3.14985
3.06934
2.99432
2.92014
2.84419
2.77729
2.7151
2.65597
2.60096
2.54822
2.49505
2.44249
2.39431
2.33571
2.28887
2.24905
2.2059
2.1653
2.12633
2.10728
2.08746
2.08479
2.09288
2.15685
2.27323
2.45686
2.66596
3.1054
3.36413
3.36726
3.32491
3.23494
3.19015
3.1931
3.19984
3.19418
3.17655
3.15551
3.13371
3.11494
3.09702
3.07518
3.0478
3.01486
2.98179
2.95331
2.92631
2.89737
2.86853
2.83982
2.80973
2.78071
2.75144
2.72318
2.69484
2.66598
2.63166
2.57978
3.84249
4.49249
4.5389
4.43423
4.28484
4.1595
3.99913
3.80428
3.69744
3.58759
3.46406
3.35712
3.27493
3.16236
3.11839
3.13421
3.30794
3.59598
4.34428
4.57706
4.58531
4.46471
4.37408
4.3254
4.27944
4.2322
4.1819
4.12629
4.07448
4.03162
3.99345
3.9548
3.91464
3.87106
3.82291
3.76844
3.70745
3.63919
3.56474
3.48507
3.40251
3.31546
3.23097
3.14875
3.06877
2.99123
2.91805
2.84551
2.77936
2.72061
2.66553
2.61144
2.55801
2.50305
2.45322
2.3992
2.35216
2.30857
2.26411
2.22818
2.1916
2.16006
2.10886
2.08348
2.06204
2.07235
2.10571
2.17855
2.32197
2.50106
2.86782
3.24687
3.32752
3.30818
3.26224
3.19327
3.15978
3.16332
3.15812
3.14178
3.12398
3.10744
3.09134
3.05804
3.02719
2.9969
2.96931
2.94142
2.9129
2.88413
2.85416
2.82497
2.79519
2.76817
2.74049
2.71103
2.68241
2.65315
2.61853
2.56675
2.82106
4.24027
4.4439
4.43751
4.31759
4.18206
4.04828
3.86197
3.72926
3.64291
3.54108
3.39099
3.29334
3.2691
3.28966
3.46053
3.72191
4.47913
4.77031
4.77293
4.6222
4.51313
4.46764
4.42374
4.37344
4.31706
4.25166
4.18443
4.12244
4.07097
4.02789
3.98654
3.94477
3.90136
3.85482
3.80371
3.7471
3.68471
3.61649
3.54341
3.46557
3.38554
3.30216
3.22024
3.13977
3.06357
2.98703
2.91484
2.84458
2.78256
2.7239
2.67228
2.61952
2.56845
2.50958
2.45891
2.40927
2.36107
2.31696
2.27308
2.23101
2.19388
2.16693
2.11907
2.09308
2.04944
2.05092
2.06871
2.11446
2.21582
2.39494
2.56938
3.00698
3.28791
3.30478
3.2945
3.19655
3.14153
3.1296
3.11775
3.10395
3.09125
3.07745
3.04823
3.00675
2.97264
2.94636
2.92317
2.89751
2.8684
2.83603
2.80557
2.77551
2.74908
2.7241
2.69735
2.66758
2.63642
2.60084
2.55062
1.82468
3.27151
4.3658
4.41637
4.35979
4.22205
4.10756
3.94541
3.77699
3.68836
3.58296
3.45878
3.4008
3.42397
3.59778
3.86429
4.65381
5.00108
4.99457
4.82673
4.6834
4.61939
4.56141
4.50556
4.45083
4.39448
4.33388
4.26462
4.19326