/*--------------------------------*- C++ -*----------------------------------*\
| =========                 |                                                 |
| \\      /  F ield         | OpenFOAM: The Open Source CFD Toolbox           |
|  \\    /   O peration     | Version:  v2106                                 |
|   \\  /    A nd           | Website:  www.openfoam.com                      |
|    \\/     M anipulation  |                                                 |
\*---------------------------------------------------------------------------*/
FoamFile
{
    version     2.0;
    format      ascii;
    arch        "LSB;label=32;scalar=64";
    class       volScalarField;
    location    "8";
    object      T;
}
// * * * * * * * * * * * * * * * * * * * * * * * * * * * * * * * * * * * * * //

dimensions      [0 0 0 1 0 0 0];

internalField   nonuniform List<scalar> 
5250
(
1
1
1
1
1
1
1
1
1.00001
1.00009
1.00078
1.00686
1.05734
1.32158
2.02041
2.99797
2.3671
2.29083
2.34437
2.36641
2.40116
2.44513
2.48441
2.52149
2.54716
1
1
1
1
1
1
1
1
1.00001
1.00009
1.00076
1.00665
1.05579
1.3156
2.0075
3.01424
2.36123
2.28107
2.33348
2.35594
2.39176
2.43759
2.47948
2.51806
2.54398
1
1
1
1
1
1
1
1
1.00001
1.00008
1.00071
1.00619
1.05226
1.30169
1.97841
3.05081
2.36722
2.26591
2.3145
2.33485
2.37125
2.42015
2.46683
2.50827
2.5346
1
1
1
1
1
1
1
1
1.00001
1.00007
1.00067
1.00566
1.04741
1.28156
1.93726
3.0613
2.39995
2.27038
2.30386
2.30951
2.34196
2.39412
2.44923
2.49541
2.52354
1
1
1
1
1
1
1
1
1.00001
1.00006
1.00057
1.00485
1.04148
1.25594
1.88386
3.07246
2.44477
2.29206
2.31519
2.29931
2.31291
2.35869
2.42159
2.47778
2.50913
1
1
1
1
1
1
1
1
1.00001
1.00005
1.00041
1.0037
1.03484
1.2259
1.81954
3.11117
2.51036
2.33263
2.34076
2.3073
2.30552
2.33032
2.38602
2.45492
2.48898
1
1
1
1
1
1
1
1
1
1.00003
1.00033
1.00302
1.02906
1.19738
1.74628
3.12317
2.57689
2.39408
2.38118
2.32701
2.30005
2.30235
2.34218
2.41807
2.46289
1
1
1
1
1
1
1
1
1
1.00003
1.00029
1.0026
1.02393
1.16965
1.67201
3.06278
2.58435
2.44857
2.42629
2.36587
2.30534
2.28817
2.30824
2.37716
2.41636
1
1
1
1
1
1
1
1
1
1.00002
1.00023
1.00205
1.01899
1.14111
1.59459
2.94724
2.5491
2.50152
2.4792
2.42631
2.33515
2.27117
2.26335
2.32238
2.34239
1
1
1
1
1
1
1
1
1
1.00002
1.00018
1.00161
1.01491
1.1155
1.51449
2.80246
2.50007
2.48586
2.47311
2.44286
2.37522
2.28419
2.2306
2.26078
2.18424
1
1
1
1
1
1
1
1
1
1.00002
1.00015
1.0013
1.01149
1.08718
1.42904
2.65008
2.549
2.41672
2.4247
2.43056
2.39441
2.30113
2.18061
2.1023
1.89799
1
1
1
1
1
1
1
1
1
1.00001
1.00009
1.00085
1.00725
1.05977
1.34019
2.33762
2.61448
2.33503
2.35075
2.39421
2.38647
2.32416
2.19751
2.09874
1.7675
1
1
1
1
1
1
1
1
1
1.00001
1.00005
1.00049
1.00428
1.03888
1.24575
1.88408
2.79693
2.24439
2.26431
2.32949
2.35275
2.3161
2.20968
2.09986
1.78009
1
1
1
1
1
1
1
1
1
1
1.00003
1.00031
1.00276
1.02611
1.18164
1.70558
2.92388
2.27292
2.23646
2.26556
2.30262
2.28574
2.20502
2.10164
1.82919
1
1
1
1
1
1
1
1
1
1
1.00002
1.00021
1.00182
1.01664
1.12553
1.54897
2.87872
2.33227
2.24118
2.21772
2.23909
2.24109
2.19319
2.10849
1.90602
1
1
1
1
1
1
1
1
1
1
1.00002
1.00013
1.00117
1.01031
1.0797
1.40764
2.68342
2.48729
2.22003
2.14289
2.15725
2.18302
2.16396
2.10327
1.96849
1
1
1
1
1
1
1
1
1
1
1.00001
1.00005
1.00051
1.00455
1.04006
1.25993
2.03642
2.71195
2.24599
2.14703
2.14758
2.1511
2.13103
2.08688
1.99025
1
1
1
1
1
1
1
1
1
1
1
1.00003
1.00032
1.00278
1.02466
1.17286
1.67539
2.81024
2.25863
2.19211
2.12206
2.1168
2.09648
2.06084
1.98786
1
1
1
1
1
1
1
1
1
1
1
1.00002
1.00018
1.00153
1.01324
1.0988
1.47392
2.73746
2.3859
2.17324
2.0721
2.06043
2.04657
2.02235
1.9731
1
1
1
1
1
1
1
1
1
1
1
1.00001
1.00007
1.00065
1.00572
1.04965
1.3108
2.378
2.5818
2.18866
2.06495
2.05365
2.03547
2.00717
1.9608
1
1
1
1
1
1
1
1
1
1
1
1
1.00004
1.00036
1.003
1.0248
1.16464
1.71157
2.76638
2.23893
2.12212
2.03793
2.01584
1.98998
1.9505
1
1
1
1
1
1
1
1
1
1
1
1
1.00002
1.00012
1.00115
1.00963
1.07959
1.46112
2.61948
2.3998
2.12277
2.01618
1.99248
1.96669
1.93402
1
1
1
1
1
1
1
1
1
1
1
1
1.00001
1.00007
1.00055
1.00448
1.03569
1.21965
1.9482
2.66126
2.14434
2.08165
2.00327
1.96244
1.92361
1
1
1
1
1
1
1
1
1
1
1
1
1
1.00003
1.00016
1.00154
1.01265
1.10167
1.57332
2.62338
2.28023
2.0757
1.99209
1.95739
1.91947
1
1
1
1
1
1
1
1
1
1
1
1
1
1.00001
1.00009
1.00076
1.00598
1.04715
1.28017
2.34246
2.49596
2.08617
2.02621
1.95982
1.91664
1
1
1
1
1
1
1
1
1
1
1
1
1
1
1.00003
1.00018
1.0017
1.01407
1.11106
1.68138
2.64993
2.22563
2.04087
1.95405
1.91521
1
1
1
1
1
1
1
1
1
1
1
1
1
1
1.00001
1.00011
1.00087
1.0067
1.05225
1.30573
2.44118
2.43364
2.06224
1.99103
1.92156
1
1
1
1
1
1
1
1
1
1
1
1
1
1
1.00001
1.0001
1.00011
1.00162
1.01433
1.11063
1.70432
2.63784
2.2177
2.02429
1.92613
1
1
1
1
1
1
1
1
1
1
1
1
1
1
1
1.00002
1.00011
1.00086
1.00643
1.05022
1.30111
2.39351
2.42485
2.05058
1.98486
1
1
1
1
1
1
1
1
1
1
1
1
1
1
1
1.00001
1.00006
1
1.00139
1.01374
1.10369
1.64401
2.55666
2.22118
1.98874
1
1
1
1
1
1
1
1
1
1
1
1
1
1
1
1
1.00001
1.00009
1.00071
1.00547
1.0437
1.26987
2.163
2.44857
2.05366
1
1
1
1
1
1
1
1
1
1
1
1
1
1
1
1
0.999999
0.999986
0.999705
1.00072
1.01035
1.08583
1.52331
2.44183
2.24839
1
1
1
1
1
1
1
1
1
1
1
1
1
1
1
1
1
1.00001
1.00007
1.00058
1.00436
1.0339
1.22379
1.92798
2.46693
1
1
1
1
1
1
1
1
1
1
1
1
1
1
1
1
1
1
1.00002
1.00006
1.0007
1.00746
1.06215
1.34646
2.29954
1
1
1
1
1
1
1
1
1
1
1
1
1
1
1
1
1
1
1.00001
1.00006
1.00044
1.00373
1.00964
1.07635
1.64308
1
1
1
1
1
1
1
1
1
1
1
1
1
1
1
1
1
1
1
1.00001
1.00009
1.00075
1.00552
1.04058
1.26797
1
1
1
1
1
1
1
1
1
1
1
1
1
1
1
1
1
1
1
1
1.00003
1.00019
1.00124
1.00856
1.06887
1
1
1
1
1
1
1
1
1
1
1
1
1
1
1
1
1
1
1
1
1
1.00005
1.00047
1.00386
1.00084
1
1
1
1
1
1
1
1
1
1
1
1
1
1
1
1
1
1
1
1
1
1.00002
1.00006
1.0006
1.00513
1
1
1
1
1
1
1
1
1
1
1
1
1
1
1
1
1
1
1
1
1
1
1.00003
1.00018
1.00108
1
1
1
1
1
1
1
1
1
1
1
1
1
1
1
1
1
1
1
1
1
1
0.999998
0.999944
1.00024
1
1
1
1
1
1
1
1
1
1
1
1
1
1
1
1
1
1
1
1
1
1
1
1.00001
1.00007
1
1
1
1
1
1
1
1
1
1
1
1
1
1
1
1
1
1
1
1
1
1
1
1
1.00001
1
1
1
1
1
1
1
1
1
1
1
1
1
1
1
1
1
1
1
1
1
1
1
1
1.00004
1
1
1
1
1
1
1
1
1
1
1
1
1
1
1
1
1
1
1
1
1
1
1
1
1.00001
1
1
1
1
1
1
1
1
1
1
1
1
1
1
1
1
1
1
1
1
1
1
1
1
1
1
1
1
1
1
1
1
1
1
1
1
1
1
1
1
1
1
1
1
1
1
1
1
1
1
1
1
1
1
1
1
1
1
1
1
1
1
1
1
1
1
1
1
1
1
1
1
1
1
1
1
1
1
1
1
1
1
1
1
1
1
1
1
1
1
1
1
1
1
1
1
1
1
1
1
1
1
1
1
1
1
1
1
1
1
1
1
1
1
1
1
1
1
1
1
1
1
1
1
1
2.09688
2.34125
2.66049
2.65415
2.64246
2.71934
2.74547
2.75976
2.55241
2.50708
2.49785
2.49461
2.50404
2.51588
2.53064
2.47413
2.42143
2.39725
2.39242
2.3925
2.39579
2.39678
2.39906
2.39961
2.40009
2.3941
2.39187
2.39127
2.39213
2.3903
2.39715
2.39783
2.40542
2.43202
2.45692
2.47955
2.52399
2.56156
2.60131
2.63275
2.66114
2.69688
2.72521
2.75632
2.77657
2.78669
2.79562
2.80926
2.81322
2.82721
2.81647
2.80768
2.79656
2.78535
2.77518
2.7638
2.75088
2.73778
2.72453
2.71169
2.6993
2.68668
2.67472
2.66267
2.65114
2.63956
2.62829
2.61723
2.60621
2.59577
2.5854
2.57563
2.56593
2.55643
2.54687
2.53752
2.52811
2.51902
2.50986
2.501
2.49208
2.48365
2.4752
2.4672
2.45913
2.45129
2.44337
2.43541
2.42738
2.41922
2.411
2.40261
2.39416
2.38556
2.37688
2.36775
2.35851
2.34422
2.34232
2.34917
2.09568
2.28517
2.48709
2.63353
2.69532
2.78626
2.87335
2.95066
2.71529
2.67949
2.66353
2.73557
2.75293
2.77542
2.78295
2.70982
2.67244
2.65249
2.65043
2.65217
2.65427
2.65646
2.65886
2.66062
2.66368
2.65857
2.64884
2.64742
2.65004
2.64769
2.66125
2.66981
2.67972
2.70652
2.72409
2.73229
2.77291
2.79379
2.8274
2.84598
2.86093
2.87149
2.92828
2.91469
2.89317
2.87488
2.86319
2.84115
2.82524
2.80131
2.76901
2.73783
2.71072
2.68277
2.66
2.63684
2.61269
2.59114
2.56975
2.5499
2.53278
2.5158
2.49888
2.48293
2.46801
2.45311
2.43799
2.42339
2.40982
2.39823
2.38697
2.37679
2.36676
2.35713
2.34745
2.33816
2.32888
2.31996
2.31104
2.30223
2.29333
2.28465
2.27588
2.26741
2.25883
2.25055
2.24228
2.23409
2.22608
2.21798
2.21028
2.2025
2.19512
2.1877
2.18049
2.1731
2.16535
2.15295
2.15208
2.1599
1.88307
2.06584
2.26447
2.47062
2.56458
2.64296
2.66441
2.77504
2.86778
2.88885
2.90577
2.87053
2.77773
2.81113
2.82641
2.89351
2.79955
2.76825
2.76545
2.77077
2.7735
2.77374
2.77344
2.77351
2.77151
2.77042
2.76886
2.76772
2.76953
2.76914
2.78194
2.78562
2.79542
2.8303
2.84909
2.857
2.88112
2.95539
2.94726
2.9363
2.94042
2.91747
2.87609
2.82226
2.76112
2.69929
2.64848
2.59056
2.55744
2.5236
2.48718
2.45518
2.42673
2.39733
2.37943
2.36141
2.34283
2.32481
2.307
2.28955
2.27485
2.26193
2.24899
2.23619
2.22423
2.21277
2.20128
2.18973
2.17852
2.16762
2.15657
2.14656
2.13714
2.12868
2.12071
2.11352
2.10649
2.09959
2.09264
2.08568
2.07864
2.07176
2.06484
2.05807
2.05126
2.04459
2.03791
2.0312
2.02443
2.01754
2.01055
2.00343
1.99622
1.98922
1.98244
1.97568
1.96858
1.95775
1.95559
1.96333
1.7481
1.83149
1.96552
2.17051
2.34189
2.43841
2.41741
2.48879
2.61196
2.73737
2.81385
2.83739
2.82077
2.7847
2.74515
2.81387
2.85192
2.84779
2.83928
2.81673
2.75167
2.73668
2.74999
2.75494
2.75883
2.75829
2.75704
2.75468
2.75708
2.75087
2.77799
2.80945
2.85839
2.89894
2.90231
2.91999
2.90759
2.87706
2.80895
2.731
2.66101
2.59033
2.5168
2.48466
2.43129
2.39169
2.35618
2.3301
2.30234
2.28082
2.25821
2.23995
2.21778
2.19718
2.18279
2.1691
2.15607
2.14212
2.13042
2.11881
2.10756
2.0972
2.08658
2.07567
2.06637
2.05813
2.04975
2.04119
2.03244
2.02367
2.01493
2.00622
1.99781
1.98999
1.98243
1.97534
1.96879
1.96279
1.95688
1.95115
1.94544
1.93978
1.9341
1.92837
1.92257
1.9167
1.91076
1.90474
1.89863
1.89244
1.8862
1.87995
1.87366
1.86739
1.86099
1.85442
1.84734
1.83723
1.83295
1.84076
1.75163
1.75741
1.81144
1.91764
2.04655
2.19574
2.15357
2.19323
2.29056
2.42194
2.56994
2.64574
2.71151
2.70648
2.6835
2.68373
2.71632
2.76098
2.79375
2.8107
2.80522
2.79111
2.77331
2.76141
2.74838
2.73963
2.74278
2.73818
2.73657
2.75383
2.77464
2.8073
2.83021
2.81168
2.76526
2.70378
2.63905
2.55626
2.48233
2.42042
2.36689
2.31232
2.25422
2.22456
2.18831
2.17222
2.15339
2.13559
2.12191
2.11037
2.09825
2.08379
2.0722
2.06041
2.04797
2.03828
2.03181
2.02377
2.01454
2.00655
1.99796
1.98904
1.98116
1.97327
1.96546
1.95755
1.949
1.9412
1.93543
1.92953
1.9233
1.91668
1.90963
1.90226
1.8943
1.88686
1.88101
1.87564
1.87032
1.86511
1.86004
1.85499
1.84991
1.84475
1.83948
1.83413
1.82866
1.82314
1.81756
1.81196
1.8063
1.80056
1.79469
1.78871
1.78255
1.77623
1.76946
1.76072
1.75454
1.76195
1.79211
1.74538
1.75546
1.80564
1.86542
1.94585
1.95037
1.9701
2.05285
2.16595
2.28326
2.37435
2.46933
2.51475
2.51714
2.53301
2.57063
2.61591
2.66196
2.69774
2.73177
2.74657
2.74945
2.74637
2.74105
2.73366
2.72935
2.73214
2.73778
2.75879
2.75865
2.7478
2.71468
2.66016
2.58026
2.46163
2.37375
2.26899
2.21241
2.16377
2.11354
2.08307
2.04926
2.03841
2.03346
2.02298
2.0066
2.00007
2.00135
1.99833
1.99224
1.98544
1.97372
1.96628
1.9612
1.95653
1.95157
1.94564
1.93846
1.93267
1.92752
1.92088
1.91334
1.90553
1.89804
1.89182
1.88645
1.8818
1.87669
1.87105
1.86512
1.85904
1.85288
1.84664
1.84028
1.83416
1.82821
1.82238
1.81685
1.81161
1.80674
1.80208
1.79741
1.79267
1.78783
1.78286
1.77774
1.77248
1.76708
1.76155
1.75586
1.75001
1.74408
1.73832
1.73253
1.72665
1.7203
1.7126
1.70482
1.71199
1.8537
1.76308
1.75213
1.76759
1.78011
1.81516
1.81001
1.7959
1.83558
1.90589
1.99066
2.06888
2.15089
2.23818
2.28117
2.31427
2.36211
2.41253
2.46879
2.51464
2.5661
2.60268
2.63989
2.65763
2.67649
2.68092
2.69053
2.71248
2.72044
2.71765
2.70332
2.65137
2.54066
2.38739
2.24958
2.12839
2.05906
1.99006
1.96005
1.9362
1.92357
1.92302
1.9237
1.92851
1.93582
1.92665
1.91525
1.91768
1.91028
1.91192
1.91966
1.92217
1.91697
1.90952
1.90473
1.90157
1.8984
1.89564
1.89292
1.8876
1.88218
1.87681
1.87003
1.86549
1.86093
1.85624
1.85126
1.84563
1.84039
1.83548
1.83054
1.82542
1.81999
1.81423
1.8081
1.80172
1.79604
1.79094
1.78602
1.78136
1.77685
1.77235
1.76776
1.76304
1.75818
1.75317
1.74803
1.74279
1.73743
1.73195
1.72634
1.72065
1.71489
1.70908
1.70319
1.69713
1.69061
1.68282
1.67477
1.68209
1.89846
1.79702
1.7713
1.75479
1.75697
1.7566
1.74129
1.70664
1.71218
1.74061
1.79707
1.85851
1.9152
1.96729
2.02589
2.04265
2.08338
2.14506
2.21574
2.27573
2.34533
2.38813
2.44019
2.48053
2.52647
2.55923
2.59396
2.63128
2.65917
2.62576
2.55139
2.41587
2.22681
2.08768
1.97248
1.89635
1.84034
1.80646
1.77522
1.766
1.76496
1.76911
1.78029
1.7989
1.82794
1.86023
1.88885
1.87408
1.85839
1.86131
1.86461
1.87617
1.88132
1.87863
1.87222
1.86522
1.86468
1.86429
1.86288
1.8601
1.85362
1.85161
1.84794
1.84356
1.83835
1.83203
1.82732
1.82347
1.81965
1.8153
1.81037
1.80503
1.79939
1.79373
1.78843
1.78361
1.77878
1.77392
1.76912
1.76453
1.76005
1.75554
1.75095
1.74626
1.74144
1.73646
1.73133
1.72606
1.72067
1.71515
1.70947
1.70361
1.69762
1.69179
1.686
1.68013
1.67385
1.66626
1.65818
1.66546
1.90935
1.83442
1.80379
1.76329
1.76079
1.74804
1.72173
1.68419
1.64173
1.64783
1.67071
1.70484
1.7436
1.78075
1.80867
1.83982
1.85162
1.88814
1.9449
2.00222
2.06297
2.12507
2.1801
2.23519
2.29887
2.358
2.46236
2.52489
2.51401
2.44041
2.31518
2.12731
1.95506
1.87008
1.80542
1.75969
1.72034
1.69446
1.66553
1.65859
1.6504
1.65304
1.66023
1.67911
1.7084
1.74392
1.7927
1.86308
1.86355
1.84821
1.83661
1.83756
1.84283
1.85604
1.85544
1.84946
1.84621
1.84404
1.84225
1.84119
1.84088
1.83898
1.83358
1.82433
1.82115
1.81876
1.81615
1.81269
1.80807
1.80237
1.79629
1.79156
1.7873
1.78298
1.77833
1.77323
1.76822
1.76353
1.7589
1.75436
1.74985
1.74531
1.74068
1.73593
1.73101
1.72593
1.72075
1.71547
1.71007
1.70449
1.69877
1.69291
1.68707
1.68133
1.6756
1.66977
1.66353
1.65596
1.64775
1.65507
1.90652
1.84909
1.82281
1.78357
1.7711
1.75132
1.7245
1.68587
1.64229
1.61433
1.61608
1.63144
1.65038
1.66707
1.68828
1.70407
1.70152
1.71331
1.74382
1.79031
1.83282
1.87696
1.92185
1.97078
2.03737
2.11354
2.25875
2.40993
2.32503
2.22132
2.07603
1.8997
1.81611
1.75827
1.71058
1.67605
1.6499
1.62822
1.60429
1.58845
1.58015
1.5789
1.58199
1.59554
1.61346
1.6426
1.68679
1.73604
1.79688
1.88433
1.8629
1.82045
1.82262
1.82709
1.83395
1.84145
1.83986
1.83748
1.83503
1.83087
1.82942
1.8278
1.8256
1.82065
1.81639
1.81258
1.80739
1.80077
1.79517
1.79141
1.78824
1.78479
1.78067
1.77595
1.77052
1.76485
1.76008
1.75566
1.75119
1.74665
1.74201
1.73726
1.73238
1.72738
1.7223
1.71719
1.71203
1.70676
1.7014
1.69596
1.69048
1.68491
1.67925
1.67354
1.66782
1.66197
1.65567
1.64802
1.63952
1.64687
1.90133
1.85821
1.82479
1.80456
1.78433
1.76175
1.73409
1.69536
1.65066
1.61794
1.59656
1.6015
1.60859
1.62143
1.62667
1.62486
1.62605
1.62883
1.63094
1.6481
1.67835
1.70908
1.74467
1.79258
1.85938
1.97776
2.24403
2.21057
2.13481
2.03843
1.9102
1.80495
1.74752
1.6996
1.65893
1.62652
1.5978
1.57459
1.56067
1.55364
1.5459
1.53887
1.54198
1.54864
1.55605
1.57296
1.59659
1.62901
1.68283
1.74824
1.8295
1.87817
1.8545
1.8267
1.81509
1.81604
1.82071
1.82699
1.82707
1.82305
1.81483
1.81536
1.81511
1.81309
1.80741
1.80029
1.79299
1.78977
1.78741
1.78446
1.78048
1.77544
1.7699
1.76385
1.75907
1.7552
1.75148
1.74763
1.74354
1.73906
1.73412
1.72886
1.7236
1.71855
1.71354
1.70851
1.70348
1.69836
1.6931
1.68771
1.68222
1.67664
1.67098
1.66534
1.65968
1.65382
1.64747
1.63976
1.63117
1.63861
1.89087
1.85612
1.82063
1.80635
1.78674
1.77289
1.74933
1.71294
1.67022
1.63051
1.60073
1.59006
1.59075
1.59412
1.59546
1.59806
1.59482
1.57951
1.56385
1.57086
1.59381
1.61535
1.64302
1.6872
1.7707
1.92845
2.19628
2.07076
2.00852
1.92984
1.82995
1.77645
1.73198
1.6887
1.64884
1.61232
1.58032
1.55678
1.54231
1.52602
1.52349
1.52542
1.53027
1.52741
1.52667
1.53173
1.54068
1.55752
1.5863
1.62386
1.68212
1.76305
1.88124
1.85926
1.81606
1.79405
1.79905
1.79772
1.80349
1.80177
1.80051
1.79911
1.79635
1.79426
1.7913
1.78707
1.78281
1.77771
1.77395
1.76946
1.76449
1.75999
1.75572
1.75141
1.74697
1.74327
1.73946
1.73514
1.73024
1.7249
1.7196
1.71477
1.71019
1.70561
1.70096
1.69621
1.69128
1.68617
1.68102
1.67594
1.67083
1.66567
1.66035
1.65484
1.64918
1.64335
1.63717
1.62979
1.62157
1.62927
1.87786
1.85008
1.8186
1.80386
1.78572
1.77663
1.75884
1.73088
1.69496
1.656
1.6156
1.59469
1.58673
1.58429
1.58774
1.58488
1.57617
1.5603
1.5489
1.53243
1.54668
1.56293
1.59281
1.65612
1.78308
2.06245
2.07098
1.99937
1.95011
1.88494
1.81447
1.7722
1.73277
1.69478
1.65829
1.62784
1.59825
1.57909
1.55888
1.54355
1.53219
1.51893
1.51529
1.51427
1.5171
1.51805
1.51613
1.517
1.522
1.53723
1.57216
1.62661
1.69987
1.79915
1.85727
1.82
1.79987
1.77263
1.77553
1.77642
1.78425
1.77988
1.7789
1.77669
1.77346
1.7678
1.76346
1.75807
1.75338
1.74942
1.74433
1.74012
1.73632
1.73257
1.72859
1.72425
1.71937
1.71397
1.70912
1.70492
1.70073
1.69644
1.69198
1.68736
1.68245
1.67715
1.67197
1.66722
1.66274
1.65828
1.65369
1.64886
1.64373
1.63849
1.63329
1.62801
1.62239
1.61552
1.60796
1.61609
1.87335
1.84379
1.81373
1.79696
1.78205
1.77335
1.75741
1.73566
1.70786
1.67625
1.64456
1.60724
1.59614
1.58997
1.5831
1.57658
1.56985
1.56034
1.53864
1.5319
1.54254
1.55769
1.60218
1.70343
1.87845
2.07678
1.96706
1.94457
1.90868
1.86453
1.81646
1.78077
1.74576
1.71195
1.68394
1.65409
1.6328
1.61172
1.5898
1.57452
1.55906
1.54108
1.52207
1.51384
1.51048
1.50834
1.50239
1.49629
1.49109
1.49526
1.50753
1.53165
1.56874
1.63124
1.71273
1.84084
1.82894
1.78086
1.77004
1.75378
1.75671
1.75887
1.76586
1.76361
1.76215
1.75757
1.752
1.74614
1.74101
1.73788
1.73371
1.72721
1.72167
1.71751
1.71319
1.70865
1.70375
1.69834
1.69304
1.68862
1.68411
1.6793
1.674
1.66829
1.6623
1.65758
1.65367
1.64969
1.64557
1.6412
1.63652
1.63158
1.62632
1.6209
1.61567
1.61039
1.60482
1.59802
1.59055
1.5989
1.86911
1.83794
1.80922
1.78806
1.77752
1.76759
1.75453
1.73664
1.71279
1.68452
1.66046
1.62707
1.61001
1.60203
1.58869
1.57946
1.57069
1.55921
1.53797
1.54386
1.55398
1.57935
1.6549
1.80713
2.06656
2.00154
1.93412
1.90514
1.88429
1.8602
1.83132
1.79935
1.76406
1.73656
1.71057
1.68373
1.66185
1.6384
1.61904
1.60127
1.58072
1.5571
1.54709
1.53576
1.5183
1.50497
1.48926
1.479
1.48151
1.48087
1.47414
1.47891
1.49099
1.52277
1.56992
1.64516
1.74236
1.83609
1.79914
1.77289
1.73201
1.74206
1.74234
1.75043
1.74843
1.74465
1.74015
1.73871
1.73713
1.73412
1.73006
1.72483
1.71832
1.7128
1.70904
1.70455
1.69907
1.69349
1.68815
1.68369
1.67933
1.67478
1.66988
1.66483
1.65968
1.6544
1.64919
1.64414
1.63906
1.63387
1.62847
1.62291
1.61714
1.61125
1.60569
1.60015
1.59431
1.58727
1.5791
1.58705
1.87096
1.83626
1.80907
1.78391
1.7744
1.76365
1.75158
1.73576
1.71551
1.69149
1.66584
1.64449
1.61649
1.60247
1.59738
1.58417
1.56963
1.5581
1.55753
1.56393
1.57942
1.63733
1.76336
2.01734
1.98667
1.91791
1.90773
1.89521
1.88176
1.86471
1.84312
1.81848
1.79125
1.76368
1.7364
1.71203
1.6875
1.66304
1.64329
1.62172
1.59683
1.58149
1.56633
1.54592
1.52386
1.50745
1.50146
1.49136
1.47771
1.46118
1.45278
1.45779
1.45687
1.46455
1.4822
1.52469
1.58785
1.67227
1.805
1.80374
1.7577
1.74966
1.72233
1.72527
1.7291
1.73486
1.73531
1.73482
1.73078
1.72468
1.71964
1.71558
1.71201
1.70797
1.70389
1.69877
1.69161
1.68646
1.68241
1.67828
1.67386
1.66879
1.66327
1.65824
1.65351
1.64872
1.64363
1.63818
1.63261
1.62695
1.62105
1.61472
1.60839
1.60274
1.59733
1.59183
1.58592
1.57879
1.57034
1.57839
1.87525
1.83218
1.8064
1.77952
1.77069
1.75963
1.74808
1.73305
1.71564
1.6966
1.6743
1.65137
1.62478
1.60803
1.60087
1.58767
1.56938
1.57025
1.57896
1.59273
1.64232
1.75047
1.98236
1.97793
1.91682
1.90608
1.90096
1.8953
1.88697
1.874
1.85622
1.83469
1.81112
1.78546
1.75839
1.73251
1.70634
1.68209
1.66054
1.63608
1.61533
1.59776
1.57699
1.55207
1.53983
1.52788
1.51152
1.49408
1.47566
1.4567
1.44646
1.44809
1.44344
1.44437
1.44635
1.45987
1.48575
1.53071
1.60084
1.69068
1.81942
1.79339
1.76002
1.72471
1.70809
1.71362
1.71649
1.72154
1.72032
1.71719
1.70866
1.70641
1.70362
1.70008
1.69588
1.69084
1.68445
1.6775
1.67372
1.66954
1.66472
1.65934
1.65352
1.64842
1.6431
1.63833
1.63358
1.62869
1.62348
1.61808
1.61235
1.60635
1.60077
1.59539
1.58985
1.58405
1.57774
1.57026
1.56137
1.56942
1.88481
1.8402
1.8074
1.77722
1.76619
1.75817
1.74569
1.73089
1.71475
1.6973
1.67792
1.65599
1.62853
1.61388
1.59908
1.57996
1.58342
1.59038
1.60126
1.64715
1.75071
1.97155
1.98892
1.93199
1.90801
1.90484
1.90098
1.89626
1.88859
1.87703
1.86159
1.84228
1.82031
1.79681
1.77198
1.74603
1.71984
1.69606
1.67165
1.64723
1.62891
1.60714
1.58179
1.56843
1.55505
1.5363
1.51629
1.50069
1.48668
1.47468
1.46195
1.45001
1.43662
1.43531
1.43233
1.43405
1.43669
1.45061
1.48623
1.54757
1.62593
1.74587
1.80084
1.75343
1.73677
1.69528
1.69811
1.70359
1.71159
1.71002
1.70826
1.7048
1.69986
1.69284
1.68883
1.68554
1.68151
1.67595
1.66919
1.66299
1.65798
1.65309
1.64817
1.64311
1.63761
1.63125
1.6256
1.62089
1.61603
1.611
1.60567
1.60001
1.5943
1.58866
1.58302
1.57712
1.57071
1.56313
1.55396
1.56206
1.90062
1.85389
1.80924
1.77538
1.76076
1.75714
1.74622
1.73168
1.7153
1.69786
1.68008
1.6615
1.63757
1.61393
1.58344
1.58528
1.59698
1.61051
1.65135
1.74595
1.94717
2.00568
1.93781
1.92091
1.9036
1.89733
1.8913
1.88466
1.87683
1.86714
1.85487
1.83969
1.82095
1.79969
1.77649
1.75256
1.72837
1.70506
1.68051
1.66015
1.63883
1.61802
1.60091
1.58286
1.56292
1.5399
1.52834
1.51401
1.50197
1.48881
1.47478
1.46135
1.44879
1.43683
1.42253
1.42131
1.41901
1.42359
1.43255
1.45458
1.49766
1.56709
1.6549
1.77893
1.77006
1.72749
1.71382
1.68235
1.68675
1.69288
1.69872
1.69708
1.69404
1.68757
1.67909
1.67282
1.66993
1.66633
1.66166
1.65706
1.6525
1.64692
1.64138
1.63634
1.63107
1.62537
1.61897
1.61267
1.60763
1.60241
1.59697
1.59124
1.58574
1.58025
1.57473
1.5688
1.5623
1.55477
1.54575
1.55384
1.91513
1.87133
1.8239
1.78242
1.75566
1.75269
1.74554
1.73095
1.71515
1.699
1.68144
1.66258
1.64184
1.61834
1.58978
1.59839
1.6142
1.64836
1.73909
1.91231
2.01635
1.93808
1.92786
1.91091
1.89403
1.88751
1.88048
1.87239
1.86389
1.85489
1.84424
1.83139
1.81571
1.7973
1.77607
1.75411
1.73116
1.70754
1.68637
1.6647
1.6423
1.62869
1.61127
1.59179
1.5695
1.55632
1.54104
1.52319
1.51088
1.49827
1.48476
1.4711
1.45622
1.4438
1.43232
1.41927
1.41484
1.41534
1.40953
1.41262
1.42894
1.45942
1.50732
1.58164
1.66624
1.77849
1.75011
1.71966
1.67372
1.66763
1.67446
1.6766
1.67916
1.67596
1.66953
1.66135
1.65283
1.65067
1.64854
1.64646
1.64381
1.6397
1.63375
1.6278
1.62155
1.61532
1.60961
1.60387
1.59878
1.59361
1.58814
1.58209
1.57698
1.57154
1.56578
1.55981
1.55347
1.54588
1.53721
1.54544
1.97213
1.88554
1.84594
1.80074
1.76164
1.74996
1.74544
1.73002
1.71241
1.70086
1.68455
1.66492
1.64191
1.61139
1.61244
1.62507
1.64816
1.72742
1.87355
2.03871
1.94104
1.93531
1.9183
1.89516
1.88815
1.88031
1.87081
1.86069
1.85189
1.84311
1.83395
1.82356
1.81104
1.79611
1.77873
1.75908
1.73788
1.71623
1.69429
1.67174
1.65382
1.63483
1.61484
1.59736
1.58294
1.56814
1.55174
1.53644
1.52107
1.50596
1.49077
1.47762
1.4634
1.44895
1.43592
1.42517
1.4153
1.40439
1.39565
1.39743
1.40157
1.40691
1.42097
1.45817
1.51967
1.60159
1.74043
1.75063
1.69783
1.68879
1.65442
1.65688
1.66416
1.66346
1.6616
1.65703
1.64937
1.64151
1.63772
1.6365
1.63457
1.63119
1.62511
1.61795
1.60926
1.60493
1.60084
1.5961
1.59081
1.58539
1.5797
1.57298
1.56716
1.56171
1.55579
1.54967
1.54346
1.53612
1.52756
1.53587
1.9735
1.91808
1.86045
1.8234
1.77762
1.74571
1.74244
1.73231
1.71176
1.70067
1.68795
1.66972
1.6417
1.6265
1.64117
1.66136
1.72963
1.86523
2.05305
1.95681
1.94124
1.92103
1.89596
1.89151
1.88428
1.8745
1.86216
1.85184
1.84357
1.83519
1.82658
1.81716
1.80647
1.79377
1.77922
1.76242
1.74446
1.72497
1.70523
1.68517
1.66507
1.64317
1.6278
1.61113
1.59363
1.57578
1.56152
1.54682
1.53207
1.51734
1.50212
1.48692
1.47294
1.45952
1.4446
1.43537
1.42564
1.41456
1.40417
1.39492
1.39298
1.38886
1.39048
1.39648
1.42308
1.47359
1.53851
1.62314
1.75352
1.73274
1.69105
1.67076
1.6391
1.64305
1.65045
1.64937
1.64658
1.63859
1.63298
1.62862
1.62403
1.61896
1.61302
1.60623
1.59932
1.59404
1.5901
1.5855
1.5804
1.57495
1.56965
1.56385
1.55761
1.55118
1.54527
1.53929
1.53317
1.52604
1.51721
1.52564
2.08073
1.95547
1.86423
1.82226
1.79155
1.75521
1.73598
1.73087
1.71105
1.69651
1.68669
1.67304
1.6516
1.65912
1.6757
1.73611
1.86396
2.07615
2.00779
1.97075
1.91359
1.90445
1.90261
1.89618
1.88608
1.87336
1.85911
1.84827
1.83988
1.83143
1.82264
1.81363
1.80406
1.79333
1.78118
1.76714
1.75145
1.73404
1.71564
1.69649
1.67684
1.65874
1.64075
1.62286
1.60532
1.58832
1.57118
1.55635
1.54255
1.52819
1.51342
1.49811
1.48245
1.46835
1.45381
1.44255
1.4314
1.42001
1.4107
1.40035
1.39092
1.37911
1.38058
1.37981
1.38232
1.39939
1.43033
1.48201
1.55863
1.66645
1.72915
1.6863
1.67053
1.64786
1.62561
1.62677
1.63052
1.62924
1.62553
1.62119
1.61768
1.61091
1.59961
1.59479
1.5906
1.58632
1.58151
1.57602
1.57039
1.56447
1.55897
1.55323
1.54758
1.54148
1.53462
1.52852
1.52226
1.51517
1.5067
1.51514
2.2296
1.94139
1.8886
1.82304
1.79721
1.76626
1.73895
1.73185
1.71769
1.69846
1.67819
1.67894
1.6835
1.69477
1.74699
1.86702
2.09065
2.04247
1.99991
1.93323
1.91713
1.91447
1.90616
1.8951
1.88236
1.86874
1.85742
1.84814
1.83969
1.83131
1.82234
1.81309
1.80368
1.79357
1.78241
1.76992
1.75599
1.74069
1.72416
1.70681
1.68869
1.67042
1.65264
1.63484
1.61743
1.59958
1.58296
1.56659
1.5523
1.53776
1.52399
1.50946
1.49466
1.47893
1.46772
1.45591
1.44459
1.43442
1.42416
1.41383
1.40389
1.39371
1.37908
1.37448
1.36613
1.3717
1.38015
1.39915
1.4376
1.50113
1.58096
1.70434
1.70085
1.66094
1.6468
1.60812
1.60851
1.61317
1.61221
1.61102
1.60861
1.6041
1.59328
1.58235
1.58037
1.57797
1.57413
1.56909
1.56171
1.55492
1.54927
1.54335
1.53824
1.53256
1.52633
1.51869
1.51203
1.50489
1.49707
1.50509
2.47661
2.17553
1.91381
1.854
1.80903
1.78441
1.75437
1.73914
1.73126
1.7055
1.68874
1.70035
1.71983
1.77294
1.88571
2.10788
2.07264
2.02688
1.95425
1.92948
1.9287
1.92164
1.91188
1.9002
1.88694
1.87182
1.85733
1.84605
1.83672
1.8291
1.82104
1.8124
1.80335
1.79385
1.78364
1.7724
1.76001
1.74627
1.73125
1.71513
1.69826
1.68056
1.66269
1.64492
1.62678
1.60932
1.5918
1.57531
1.5597
1.54456
1.52938
1.51527
1.50106
1.48682
1.4741
1.46275
1.44995
1.44033
1.43133
1.42154
1.4109
1.39975
1.38822
1.3753
1.36104
1.36145
1.36256
1.36504
1.37645
1.40392
1.44959
1.52572
1.61285
1.71322
1.68658
1.65832
1.6285
1.59586
1.59685
1.6026
1.60171
1.59796
1.59153
1.57983
1.5729
1.56849
1.56583
1.56128
1.55468
1.54772
1.54144
1.53448
1.52725
1.52169
1.51554
1.5088
1.50161
1.4937
1.4858
1.49415
2.21092
2.39891
2.0567
1.92157
1.83147
1.7816
1.7575
1.72934
1.71199
1.70813
1.7126
1.72743
1.78575
1.90739
2.13727
2.10809
2.05939
1.98513
1.95149
1.94894
1.94091
1.92992
1.91751
1.90584
1.89344
1.8803
1.86619
1.85085
1.83757
1.82858
1.82055
1.81197
1.80273
1.79314
1.78307
1.77228
1.76045
1.74743
1.73325
1.71805
1.70199
1.68539
1.66824
1.65051
1.63259
1.61539
1.59821
1.58223
1.5665
1.5506
1.53463
1.51814
1.5051
1.49249
1.47941
1.46631
1.45137
1.44325
1.43421
1.4262
1.41742
1.40801
1.39746
1.38589
1.37496
1.36071
1.35193
1.35548
1.35773
1.36154
1.38036
1.42289
1.48966
1.5669
1.69813
1.6923
1.64902
1.63483
1.61034
1.59386
1.59445
1.59721
1.59449
1.58758
1.57922
1.57145
1.56536
1.55997
1.55248
1.54334
1.53739
1.53143
1.52527
1.51784
1.51015
1.5017
1.49287
1.48469
1.47618
1.48341
1.36467
2.22055
2.14127
1.89534
1.8423
1.78315
1.76119
1.73474
1.71704
1.72637
1.74438
1.79987
1.92348
2.16334
2.13457
2.08523
2.01116
1.97309
1.97047
1.96152
1.94938
1.93566
1.92302
1.91076
1.89799
1.88464
1.87065
1.85684
1.843
1.8306
1.82054
1.81063
1.80031
1.78963
1.77859
1.76716
1.75529
1.74292
1.73007
1.71666
1.70264
1.68757
1.67164
1.65473
1.63716
1.62005
1.6029
1.58701
1.57119
1.55582
1.5404
1.52488
1.51075
1.49824
1.48574
1.47363
1.46309
1.45212
1.44001
1.43161
1.42473
1.41658
1.40805
1.39864
1.38841
1.37614
1.36392
1.35065
1.35163
1.35542
1.36285
1.37488
1.41106
1.46306
1.53142
1.6103
1.71952
1.70104
1.66696
1.6437
1.60302
1.60159
1.60182
1.59717
1.58954
1.58055
1.57248
1.56293
1.55162
1.54649
1.5415
1.5353
1.52783
1.51825
1.50768
1.4995
1.4912
1.48245
1.47304
1.47948
1.06321
1.64065
2.40572
2.13468
1.86878
1.8263
1.78302
1.74678
1.7478
1.76336
1.82243
1.95266
2.19714
2.16048
2.10883
2.03474
1.99049
1.98799
1.9802
1.96888
1.95544
1.93911
1.92696
1.91456
1.90162
1.88836
1.87509
1.86182
1.84892
1.83632
1.82428
1.81242
1.80044
1.78816
1.77567
1.76307
1.75038
1.73761
1.72474
1.71148
1.69771
1.68323
1.66806
1.65222
1.63585
1.61926
1.60353
1.58789
1.57269
1.55767
1.54305
1.52893
1.51572
1.50267
1.49196
1.48081
1.47161
1.46103
1.44915
1.43917
1.43174
1.42414
1.41626
1.40781
1.39963
1.39213
1.38341
1.37353
1.37145
1.36871
1.37336
1.37888
1.39231
1.42063
1.45774
1.50931
1.59239
1.73574
1.75721
1.71911
1.69097
1.65826
1.62161
1.61241
1.60961
1.60242
1.59248
1.57901
1.56527
1.55817
1.55126
1.5435
1.53442
1.52346
1.51122
1.50193
1.49325
1.48426
1.47417
1.47986
1.0359
1.24485
2.0717
2.32859
2.03681
1.88875
1.7992
1.76911
1.78302
1.84293
1.98489
2.24502
2.17995
2.1271
2.05096
2.00405
2.00234
1.99801
1.98901
1.97532
1.95749
1.9412
1.92644
1.91237
1.89829
1.88517
1.87226
1.8594
1.84656
1.83383
1.82113
1.80834
1.79519
1.78174
1.76845
1.75529
1.74274
1.73037
1.71802
1.70561
1.69298
1.67995
1.66631
1.65225
1.63785
1.62341
1.60938
1.59541
1.58156
1.56756
1.55403
1.54016
1.52718
1.51574
1.50459
1.49547
1.48576
1.4768
1.46785
1.45884
1.44982
1.44353
1.43778
1.43392
1.4296
1.42451
1.41667
1.40989
1.41174
1.4122
1.41383
1.41643
1.42326
1.43714
1.44823
1.46826
1.51602
1.59463
1.68462
1.81581
1.78564
1.73562
1.70564
1.66425
1.64259
1.63489
1.6271
1.61619
1.6031
1.58767
1.5771
1.56596
1.55425
1.54166
1.52677
1.51113
1.50222
1.49302
1.48283
1.48633
1.00681
1.06088
1.35131
2.18144
2.12186
1.87274
1.78945
1.79245
1.85116
2.01799
2.27387
2.19215
2.15118
2.08141
2.02839
2.02646
2.02019
2.00886
1.99306
1.97151
1.95381
1.94158
1.92857
1.91433
1.89959
1.88474
1.87011
1.85562
1.84132
1.82719
1.81358
1.80042
1.78753
1.77462
1.76155
1.7483
1.73588
1.72453
1.71313
1.70165
1.6901
1.67815
1.66585
1.65298
1.64078
1.62851
1.61619
1.60374
1.59098
1.5782
1.56508
1.55321
1.54109
1.53144
1.52185
1.51386
1.50694
1.49991
1.493
1.48568
1.47976
1.47624
1.4732
1.47209
1.47073
1.46909
1.4648
1.46346
1.46603
1.47031
1.47207
1.4714
1.47035
1.47013
1.47412
1.47976
1.49297
1.53195
1.58183
1.66779
1.82058
1.81367
1.77782
1.7481
1.71662
1.67907
1.66869
1.65963
1.64961
1.6367
1.6222
1.6059
1.58973
1.57338