/*--------------------------------*- C++ -*----------------------------------*\
| =========                 |                                                 |
| \\      /  F ield         | OpenFOAM: The Open Source CFD Toolbox           |
|  \\    /   O peration     | Version:  v2106                                 |
|   \\  /    A nd           | Website:  www.openfoam.com                      |
|    \\/     M anipulation  |                                                 |
\*---------------------------------------------------------------------------*/
FoamFile
{
    version     2.0;
    format      ascii;
    arch        "LSB;label=32;scalar=64";
    class       volVectorField;
    location    "8";
    object      U;
}
// * * * * * * * * * * * * * * * * * * * * * * * * * * * * * * * * * * * * * //

dimensions      [0 1 -1 0 0 0 0];

internalField   nonuniform List<vector> 
5250
(
(3 -2.63921e-16 0)
(3 3.93831e-16 0)
(3 6.39772e-14 0)
(3 4.90237e-14 0)
(3 5.28317e-12 0)
(3 1.42751e-11 0)
(3 4.3287e-10 0)
(3 1.26746e-09 0)
(3 3.46406e-08 0)
(3.00001 1.10997e-07 0)
(3.00006 2.68182e-06 0)
(3.00068 1.19683e-05 0)
(3.00524 0.000189615 0)
(3.06666 0.00177813 0)
(2.70711 0.00145857 0)
(1.27038 0.0413086 0)
(0.273561 0.0175422 0)
(0.542161 0.0201464 0)
(0.441351 0.0208632 0)
(0.374376 0.0212084 0)
(0.327832 0.0221414 0)
(0.262189 0.0238083 0)
(0.19823 0.0273531 0)
(0.124139 0.0307071 0)
(0.0463575 0.0383964 0)
(3 5.82858e-15 0)
(3 5.57191e-15 0)
(3 2.21959e-13 0)
(3 -9.0796e-13 0)
(3 2.01806e-11 0)
(3 -7.65062e-13 0)
(3 1.5405e-09 0)
(3 6.9899e-10 0)
(3 1.17541e-07 0)
(3.00001 9.15641e-08 0)
(3.00006 8.702e-06 0)
(3.00069 2.84473e-05 0)
(3.00485 0.00062662 0)
(3.06697 0.00581744 0)
(2.71623 0.00792739 0)
(1.29902 0.125813 0)
(0.265333 0.0520278 0)
(0.540192 0.0602864 0)
(0.437007 0.0632105 0)
(0.368437 0.0628563 0)
(0.321494 0.0700342 0)
(0.256351 0.0773675 0)
(0.193561 0.0844748 0)
(0.117896 0.0935159 0)
(0.0413458 0.102304 0)
(3 2.09604e-14 0)
(3 -3.08123e-14 0)
(3 4.47931e-13 0)
(3 -6.69806e-12 0)
(3 3.87579e-11 0)
(3 -1.46032e-10 0)
(3 2.81385e-09 0)
(3 -8.50167e-09 0)
(3 2.09887e-07 0)
(3.00001 -5.51004e-07 0)
(3.00005 1.60016e-05 0)
(3.00073 -1.50772e-05 0)
(3.00398 0.0010384 0)
(3.06768 0.00956674 0)
(2.74076 0.016312 0)
(1.38617 0.205719 0)
(0.262272 0.0938327 0)
(0.543001 0.0998707 0)
(0.436963 0.106183 0)
(0.36533 0.106766 0)
(0.319379 0.114359 0)
(0.254333 0.123622 0)
(0.19376 0.139257 0)
(0.118786 0.154453 0)
(0.0413921 0.168995 0)
(3 6.13216e-14 0)
(3 1.54604e-14 0)
(3 -1.36857e-12 0)
(3 -3.38936e-11 0)
(3 1.61978e-10 0)
(3 -8.63042e-10 0)
(3 8.80658e-09 0)
(3 -4.81729e-08 0)
(3 5.23712e-07 0)
(3.00001 -8.05803e-06 0)
(3.00002 2.34184e-05 0)
(3.00091 -0.000232394 0)
(3.00285 0.00146401 0)
(3.068 0.0124025 0)
(2.77371 0.0238092 0)
(1.50426 0.275736 0)
(0.267923 0.146523 0)
(0.551601 0.145026 0)
(0.446131 0.153377 0)
(0.370167 0.15081 0)
(0.323107 0.161128 0)
(0.256915 0.17634 0)
(0.19662 0.194917 0)
(0.121587 0.219097 0)
(0.0422796 0.235206 0)
(3 3.95934e-15 0)
(3 5.77684e-14 0)
(3 1.0117e-12 0)
(3 4.81802e-12 0)
(3 7.53824e-11 0)
(3 4.99748e-10 0)
(3 5.4988e-09 0)
(3 4.01756e-08 0)
(3 3.7529e-07 0)
(3.00002 3.16786e-06 0)
(3.00001 2.89969e-05 0)
(3.00087 -0.00137338 0)
(3.00164 0.0019657 0)
(3.06713 0.0146149 0)
(2.81572 0.0324005 0)
(1.67822 0.333291 0)
(0.29187 0.199819 0)
(0.566941 0.189398 0)
(0.468143 0.199584 0)
(0.380653 0.198644 0)
(0.333386 0.208848 0)
(0.267182 0.222937 0)
(0.204926 0.251345 0)
(0.129687 0.281336 0)
(0.0422279 0.306191 0)
(3 -6.06512e-14 0)
(3 2.13887e-13 0)
(3 4.00026e-12 0)
(3 2.54884e-11 0)
(3 -3.11312e-11 0)
(3 8.62345e-10 0)
(3 1.06642e-09 0)
(3 2.80851e-08 0)
(3 2.26669e-07 0)
(3.00001 -1.52531e-05 0)
(3.00002 4.88858e-05 0)
(3.00046 -0.00135618 0)
(3.00051 0.00188973 0)
(3.06485 0.0144998 0)
(2.86129 0.0320365 0)
(1.93515 0.362415 0)
(0.33946 0.272483 0)
(0.591327 0.243126 0)
(0.503015 0.254369 0)
(0.400297 0.253094 0)
(0.353431 0.257066 0)
(0.275302 0.281301 0)
(0.227668 0.308916 0)
(0.123894 0.357192 0)
(0.0567747 0.379397 0)
(3 -1.14083e-13 0)
(3 8.74079e-14 0)
(3 -1.87997e-12 0)
(3 4.67957e-13 0)
(3 -7.63463e-11 0)
(3 -4.46095e-10 0)
(3 6.23629e-09 0)
(3 -1.59095e-08 0)
(3 1.05724e-06 0)
(3 -1.0372e-05 0)
(3.00001 2.23144e-05 0)
(3.00049 0.000114479 0)
(2.99941 0.00137704 0)
(3.05923 0.01283 0)
(2.90455 0.0350126 0)
(2.13556 0.334381 0)
(0.437714 0.344511 0)
(0.629402 0.30363 0)
(0.554246 0.310308 0)
(0.446542 0.311944 0)
(0.38169 0.314482 0)
(0.318067 0.324442 0)
(0.238925 0.380105 0)
(0.150693 0.423962 0)
(0.0734114 0.463971 0)
(3 -2.76317e-14 0)
(3 5.14863e-14 0)
(3 -8.05115e-13 0)
(3 -1.06439e-12 0)
(3 -5.57384e-11 0)
(3 -3.97866e-10 0)
(3 5.82086e-09 0)
(3 -4.61622e-09 0)
(3 2.79791e-07 0)
(3.00002 4.80339e-07 0)
(2.99993 1.55312e-05 0)
(3.00086 9.78723e-05 0)
(2.99874 0.00118202 0)
(3.05156 0.0119628 0)
(2.94576 0.0488726 0)
(2.25194 0.28061 0)
(0.527962 0.405444 0)
(0.659656 0.370911 0)
(0.602252 0.375358 0)
(0.50046 0.38301 0)
(0.428419 0.369631 0)
(0.342064 0.400768 0)
(0.260105 0.458044 0)
(0.179715 0.508387 0)
(0.0729377 0.572346 0)
(3 2.13266e-14 0)
(3 -1.98679e-14 0)
(3 4.75293e-13 0)
(3 5.18132e-12 0)
(3 6.86208e-11 0)
(3 5.83077e-10 0)
(3 -7.48123e-09 0)
(3 -7.81967e-09 0)
(3 1.35949e-07 0)
(3.00002 1.18789e-06 0)
(2.99993 1.211e-05 0)
(3.00075 0.00012223 0)
(2.9986 0.00110558 0)
(3.04249 0.0106593 0)
(2.98431 0.0567562 0)
(2.36808 0.244668 0)
(0.614322 0.44772 0)
(0.678128 0.425228 0)
(0.648368 0.42613 0)
(0.563916 0.454885 0)
(0.488546 0.445566 0)
(0.391943 0.471154 0)
(0.328541 0.524171 0)
(0.239275 0.58549 0)
(0.147101 0.700082 0)
(3 3.10577e-14 0)
(3 -2.06498e-14 0)
(3 1.29283e-12 0)
(3 4.06202e-12 0)
(3 9.2731e-11 0)
(3 5.84871e-10 0)
(3 -1.17459e-08 0)
(3 2.92383e-08 0)
(3 -4.43887e-08 0)
(3.00002 1.65083e-06 0)
(2.99993 2.92309e-06 0)
(3.00072 0.000113891 0)
(2.99819 0.000710764 0)
(3.03669 0.0096809 0)
(3.01472 0.0595695 0)
(2.48952 0.221551 0)
(0.721656 0.501038 0)
(0.664351 0.441689 0)
(0.670899 0.473867 0)
(0.623946 0.509308 0)
(0.561272 0.518169 0)
(0.455847 0.552155 0)
(0.380665 0.61658 0)
(0.309653 0.702571 0)
(0.0977692 0.940428 0)
(3 7.57917e-15 0)
(3 -3.66125e-14 0)
(3 2.70631e-12 0)
(3 -4.28261e-13 0)
(3 1.51532e-10 0)
(3 -5.31486e-10 0)
(3 5.96265e-09 0)
(3 7.62725e-08 0)
(3 -2.3135e-07 0)
(3 1.93121e-06 0)
(3.00002 -3.06554e-07 0)
(3.00013 6.46107e-05 0)
(3.00089 0.000910523 0)
(3.01446 -0.00699082 0)
(3.04138 0.0614806 0)
(2.61507 0.212886 0)
(0.910837 0.57638 0)
(0.622952 0.449971 0)
(0.683227 0.48169 0)
(0.668028 0.576807 0)
(0.623032 0.596337 0)
(0.542307 0.630255 0)
(0.474127 0.699904 0)
(0.490874 0.802879 0)
(0.424027 1.11843 0)
(3 1.64632e-15 0)
(3 2.46345e-14 0)
(3 5.74213e-13 0)
(3 2.91949e-12 0)
(3 3.3764e-11 0)
(3 2.17229e-10 0)
(3 2.16275e-09 0)
(3 6.09422e-09 0)
(3 6.94241e-08 0)
(3 3.02615e-06 0)
(3.00001 -5.51438e-05 0)
(3.00002 0.000117221 0)
(3.00114 -0.000688702 0)
(3.0039 0.00720118 0)
(3.0681 0.0554725 0)
(2.75229 0.205869 0)
(1.21882 0.674021 0)
(0.552324 0.460271 0)
(0.669855 0.49384 0)
(0.669748 0.589464 0)
(0.691923 0.651246 0)
(0.638032 0.708378 0)
(0.598688 0.764345 0)
(0.691864 0.857577 0)
(0.688987 1.02541 0)
(3 4.22053e-15 0)
(3 3.30284e-15 0)
(3 4.88643e-13 0)
(3 -5.836e-13 0)
(3 1.98891e-11 0)
(3 2.00874e-10 0)
(3 7.8829e-10 0)
(3 1.42095e-08 0)
(3 8.26865e-08 0)
(3 9.11279e-07 0)
(2.99999 7.33145e-06 0)
(3.00005 0.000115016 0)
(3.00045 -0.000674016 0)
(3.00128 0.00471622 0)
(3.0709 0.0399362 0)
(2.88929 0.145919 0)
(1.76369 0.794646 0)
(0.554791 0.506891 0)
(0.676503 0.509189 0)
(0.680074 0.586305 0)
(0.698135 0.660689 0)
(0.72507 0.74615 0)
(0.725879 0.798319 0)
(0.80454 0.882937 0)
(0.88847 0.912291 0)
(3 7.78145e-16 0)
(3 -1.48187e-15 0)
(3 -1.51829e-14 0)
(3 1.05459e-12 0)
(3 -2.6673e-12 0)
(3 5.91525e-11 0)
(3 -2.67856e-10 0)
(3 3.72287e-09 0)
(3 -1.41094e-08 0)
(3 6.50241e-07 0)
(3.00001 1.95566e-06 0)
(2.99999 4.08015e-05 0)
(3.00061 0.000285089 0)
(2.99925 0.00289329 0)
(3.05687 0.0260919 0)
(2.95671 0.0884841 0)
(2.27225 0.7499 0)
(0.709706 0.619915 0)
(0.736123 0.549357 0)
(0.72211 0.584654 0)
(0.72989 0.649737 0)
(0.7695 0.732901 0)
(0.811757 0.799484 0)
(0.897307 0.867852 0)
(0.979569 0.880477 0)
(3 2.514e-15 0)
(3 4.15912e-14 0)
(3 4.08088e-14 0)
(3 6.29074e-13 0)
(3 1.07987e-11 0)
(3 -6.96146e-11 0)
(3 8.25755e-10 0)
(3 1.21948e-09 0)
(3 3.84722e-08 0)
(3 1.92221e-07 0)
(3.00002 2.6706e-06 0)
(2.99991 1.97668e-05 0)
(3.00086 0.000208869 0)
(2.99799 0.00172751 0)
(3.04336 0.0193645 0)
(3.00521 0.093356 0)
(2.56268 0.605094 0)
(0.960455 0.726987 0)
(0.809644 0.608155 0)
(0.77665 0.618392 0)
(0.776943 0.660067 0)
(0.810022 0.729592 0)
(0.864774 0.793397 0)
(0.955407 0.861851 0)
(1.04539 0.869559 0)
(3 3.68777e-15 0)
(3 1.71616e-14 0)
(3 -7.40286e-14 0)
(3 1.33364e-12 0)
(3 4.37908e-12 0)
(3 6.74381e-11 0)
(3 -7.34706e-10 0)
(3 2.12554e-09 0)
(3 8.9181e-08 0)
(3 1.05979e-09 0)
(3 2.10619e-06 0)
(3.00001 1.01733e-05 0)
(3.00015 3.11434e-05 0)
(3.00064 0.00128794 0)
(3.0136 -0.00164171 0)
(3.04973 0.095442 0)
(2.76748 0.478438 0)
(1.32722 0.833274 0)
(0.820195 0.644713 0)
(0.833979 0.646216 0)
(0.83747 0.679484 0)
(0.860115 0.72849 0)
(0.908423 0.777189 0)
(0.992641 0.824578 0)
(1.08616 0.845543 0)
(3 8.71534e-16 0)
(3 -8.02241e-15 0)
(3 1.42177e-15 0)
(3 2.12189e-13 0)
(3 2.28179e-12 0)
(3 1.58018e-11 0)
(3 1.13787e-10 0)
(3 9.4649e-10 0)
(3 2.50102e-08 0)
(3 1.28138e-07 0)
(3 1.6342e-06 0)
(3.00004 1.10606e-05 0)
(2.99985 0.000118449 0)
(3.00164 0.000889449 0)
(2.99878 0.00876104 0)
(3.07947 0.0625348 0)
(2.94809 0.314975 0)
(1.90002 0.949905 0)
(0.825454 0.700984 0)
(0.860584 0.688277 0)
(0.882364 0.703755 0)
(0.902589 0.738685 0)
(0.945733 0.769272 0)
(1.01819 0.805207 0)
(1.10622 0.826749 0)
(3 5.08979e-16 0)
(3 1.88344e-14 0)
(3 1.33192e-13 0)
(3 2.33034e-14 0)
(3 6.12853e-12 0)
(3 2.01511e-11 0)
(3 3.96225e-10 0)
(3 2.58807e-09 0)
(3 3.4923e-10 0)
(3 9.92799e-08 0)
(3 2.01609e-07 0)
(3.00003 6.05448e-06 0)
(2.99991 2.96044e-05 0)
(3.00111 0.000424893 0)
(2.99878 0.00313939 0)
(3.06044 0.0338555 0)
(3.02165 0.176966 0)
(2.45928 0.885491 0)
(1.03606 0.784458 0)
(0.924959 0.716614 0)
(0.931537 0.709361 0)
(0.953219 0.730442 0)
(0.989478 0.758239 0)
(1.05024 0.786888 0)
(1.12612 0.809516 0)
(3 -2.66883e-17 0)
(3 1.05254e-14 0)
(3 4.99849e-14 0)
(3 -2.60777e-14 0)
(3 1.65955e-12 0)
(3 2.79449e-12 0)
(3 2.35136e-10 0)
(3 9.46817e-10 0)
(3 -1.69599e-09 0)
(3 6.63906e-08 0)
(3 -1.31025e-08 0)
(3 2.13436e-06 0)
(3.00001 2.00895e-05 0)
(3.00021 4.72686e-05 0)
(3.00094 0.00216422 0)
(3.01844 -0.00246396 0)
(3.06361 0.141299 0)
(2.78392 0.697384 0)
(1.42066 0.88619 0)
(0.981832 0.750367 0)
(0.981351 0.730951 0)
(0.999526 0.742172 0)
(1.03066 0.761734 0)
(1.08226 0.780152 0)
(1.1474 0.796633 0)
(3 4.89217e-17 0)
(3 2.05099e-15 0)
(3 1.01815e-14 0)
(3 9.19142e-14 0)
(3 5.04994e-13 0)
(3 6.10563e-12 0)
(3 3.67679e-11 0)
(3 4.26113e-10 0)
(3 2.73891e-09 0)
(3 2.7456e-08 0)
(3 1.73322e-07 0)
(2.99999 2.03398e-06 0)
(3.00007 1.66274e-05 0)
(2.9997 0.000154325 0)
(3.00281 0.00127319 0)
(2.99509 0.0116307 0)
(3.1156 0.0886004 0)
(3.00403 0.466258 0)
(2.03845 0.973485 0)
(1.01973 0.807872 0)
(1.02628 0.767017 0)
(1.04499 0.769305 0)
(1.07281 0.776586 0)
(1.11491 0.783562 0)
(1.17062 0.789631 0)
(3 1.35475e-15 0)
(3 -1.89165e-15 0)
(3 2.49755e-14 0)
(3 9.67529e-14 0)
(3 1.61131e-12 0)
(3 1.11733e-11 0)
(3 -9.49387e-12 0)
(3 6.80273e-10 0)
(3 5.52777e-10 0)
(3 2.73366e-08 0)
(3 3.01102e-07 0)
(3 -3.14185e-07 0)
(3.00001 1.06699e-05 0)
(3.00004 2.62876e-05 0)
(3.0004 0.000245381 0)
(3.00265 0.00644095 0)
(3.03546 -0.0555016 0)
(3.07575 0.285767 0)
(2.59394 0.969135 0)
(1.27451 0.893215 0)
(1.08512 0.824141 0)
(1.08703 0.786241 0)
(1.10953 0.784047 0)
(1.14782 0.785064 0)
(1.19701 0.785717 0)
(3 9.17289e-17 0)
(3 6.04872e-16 0)
(3 2.71673e-16 0)
(3 2.49022e-14 0)
(3 1.50281e-13 0)
(3 1.6964e-12 0)
(3 1.21802e-11 0)
(3 1.17512e-10 0)
(3 9.06149e-10 0)
(3 7.83864e-09 0)
(3 6.45268e-08 0)
(3 4.70613e-07 0)
(2.99998 4.50447e-06 0)
(3.00018 3.70864e-05 0)
(2.99913 0.000324911 0)
(3.00718 0.00267729 0)
(2.98176 0.0227681 0)
(3.1806 0.17213 0)
(2.95728 0.733391 0)
(1.7758 0.963931 0)
(1.16287 0.85785 0)
(1.13844 0.804544 0)
(1.15335 0.79704 0)
(1.18271 0.790974 0)
(1.22345 0.787594 0)
(3 1.49539e-16 0)
(3 -1.35583e-17 0)
(3 2.91697e-15 0)
(3 3.08819e-15 0)
(3 2.24955e-13 0)
(3 9.88644e-13 0)
(3 1.95272e-11 0)
(3 -2.33596e-12 0)
(3 9.07728e-10 0)
(3 1.95272e-09 0)
(3 3.66414e-08 0)
(3 6.78316e-07 0)
(3 -6.42273e-07 0)
(3.00001 2.12341e-05 0)
(3.00005 3.2905e-05 0)
(3.00073 0.000448012 0)
(3.0041 0.0103919 0)
(3.05749 -0.0938706 0)
(3.10638 0.477649 0)
(2.39608 1.06301 0)
(1.2803 0.908019 0)
(1.19458 0.870529 0)
(1.19195 0.818072 0)
(1.21425 0.803942 0)
(1.24919 0.794121 0)
(3 -8.9401e-17 0)
(3 4.05559e-16 0)
(3 -4.52774e-16 0)
(3 4.89349e-15 0)
(3 4.39047e-14 0)
(3 1.2219e-13 0)
(3 2.62635e-12 0)
(3 2.5328e-11 0)
(3 1.53498e-10 0)
(3 1.55768e-09 0)
(3 1.24895e-08 0)
(3 1.1049e-07 0)
(3 8.37961e-07 0)
(2.99998 7.56339e-06 0)
(3.00027 5.91477e-05 0)
(2.99858 0.000514674 0)
(3.01108 0.00403132 0)
(2.96961 0.0331534 0)
(3.24504 0.252906 0)
(2.94624 0.892104 0)
(1.72241 0.976545 0)
(1.27068 0.90186 0)
(1.24253 0.836981 0)
(1.25635 0.821328 0)
(1.28077 0.807392 0)
(3 -1.65058e-16 0)
(3 -3.80431e-16 0)
(3 -5.08295e-16 0)
(3 1.78186e-15 0)
(3 1.10069e-14 0)
(3 2.97083e-14 0)
(3 1.37847e-12 0)
(3 7.03299e-12 0)
(3 1.63537e-11 0)
(3 4.09533e-11 0)
(3 6.43488e-09 0)
(3 1.45557e-08 0)
(3 5.02972e-07 0)
(3 2.98034e-07 0)
(3.00002 3.32116e-05 0)
(3.00007 5.93959e-05 0)
(3.00114 0.000355807 0)
(3.00468 0.0115857 0)
(3.08482 -0.0878916 0)
(3.1571 0.620388 0)
(2.37746 1.06358 0)
(1.3635 0.923182 0)
(1.29549 0.890989 0)
(1.29694 0.836503 0)
(1.31605 0.818572 0)
(3 5.31647e-17 0)
(3 5.51804e-17 0)
(3 -2.45425e-16 0)
(3 1.77092e-15 0)
(3 1.23686e-14 0)
(3 4.93033e-15 0)
(3 1.17796e-12 0)
(3 1.54581e-12 0)
(3 3.09329e-11 0)
(3 2.4551e-10 0)
(3 2.27793e-09 0)
(3 1.89241e-08 0)
(3 1.65359e-07 0)
(3 1.25613e-06 0)
(2.99998 1.10791e-05 0)
(3.00027 8.2987e-05 0)
(2.99841 0.000724821 0)
(3.01231 0.00547394 0)
(2.96815 0.0453639 0)
(3.28274 0.330384 0)
(2.95874 0.983346 0)
(1.76835 0.997492 0)
(1.36625 0.937832 0)
(1.33651 0.867786 0)
(1.35046 0.847535 0)
(3 -1.4507e-16 0)
(3 -3.24501e-16 0)
(3 -3.56844e-16 0)
(3 4.3152e-16 0)
(3 1.53756e-15 0)
(3 1.29641e-14 0)
(3 1.89085e-13 0)
(3 1.5005e-12 0)
(3 1.21223e-11 0)
(3 2.64854e-10 0)
(3 -1.68293e-10 0)
(3 1.94806e-09 0)
(3 2.38495e-08 0)
(3 3.31512e-07 0)
(3 1.37179e-06 0)
(3.00002 2.93518e-05 0)
(3.00009 6.67921e-05 0)
(3.00144 -0.000277668 0)
(3.0047 0.0121806 0)
(3.1094 -0.075028 0)
(3.21311 0.687012 0)
(2.43958 1.07095 0)
(1.46883 0.943932 0)
(1.39743 0.911139 0)
(1.39469 0.855243 0)
(3 -7.03537e-17 0)
(3 2.51026e-16 0)
(3 3.52165e-16 0)
(3 5.892e-16 0)
(3 1.07646e-15 0)
(3 1.11173e-14 0)
(3 8.64885e-14 0)
(3 6.6533e-13 0)
(3 6.13785e-12 0)
(3 4.87459e-11 0)
(3 3.70725e-10 0)
(3 2.98473e-09 0)
(3 2.48329e-08 0)
(3 2.11482e-07 0)
(2.99999 1.59612e-06 0)
(3.00005 1.35478e-05 0)
(2.99995 8.17166e-05 0)
(2.99802 0.000854659 0)
(3.01321 0.00618914 0)
(2.96867 0.0514662 0)
(3.29933 0.360154 0)
(2.99568 1.0191 0)
(1.87358 1.02167 0)
(1.46486 0.977879 0)
(1.4239 0.901794 0)
(3 1.28317e-16 0)
(3 8.80291e-17 0)
(3 2.05993e-16 0)
(3 3.00693e-16 0)
(3 8.50349e-16 0)
(3 5.47738e-15 0)
(3 1.02297e-13 0)
(3 -3.54332e-13 0)
(3 6.55425e-12 0)
(3 9.34474e-12 0)
(3 3.13839e-10 0)
(3 4.83067e-09 0)
(3 -2.00392e-10 0)
(3 1.48476e-07 0)
(3 1.80579e-07 0)
(3 8.16067e-06 0)
(3.00002 4.29083e-05 0)
(3.00008 0.000132571 0)
(3.00158 -0.0027433 0)
(3.00364 0.0115054 0)
(3.12322 -0.0200049 0)
(3.27949 0.65906 0)
(2.55349 1.05032 0)
(1.59334 0.953699 0)
(1.4978 0.946629 0)
(3 -1.29952e-16 0)
(3 -2.92923e-16 0)
(3 -5.2858e-16 0)
(3 -9.40863e-16 0)
(3 -1.4797e-15 0)
(3 3.44005e-15 0)
(3 1.11802e-14 0)
(3 1.208e-13 0)
(3 1.14461e-12 0)
(3 8.35665e-12 0)
(3 6.9367e-11 0)
(3 3.67945e-10 0)
(3 3.86856e-09 0)
(3 3.24733e-08 0)
(3 2.43512e-07 0)
(3 1.89714e-06 0)
(3.00003 1.46534e-05 0)
(3.00001 9.71928e-05 0)
(2.99827 0.000870239 0)
(3.01229 0.00596334 0)
(2.97896 0.0503981 0)
(3.306 0.375772 0)
(3.07215 1.01317 0)
(2.03531 1.04823 0)
(1.57418 0.99443 0)
(3 5.13812e-17 0)
(3 2.61505e-16 0)
(3 -2.82471e-16 0)
(3 -4.83818e-16 0)
(3 -4.01259e-16 0)
(3 -6.56943e-16 0)
(3 9.32056e-15 0)
(3 -1.10526e-14 0)
(3 5.0783e-13 0)
(3 3.04979e-12 0)
(3 2.62367e-11 0)
(3 2.32414e-10 0)
(3 1.60653e-09 0)
(3 8.38811e-09 0)
(3 1.01934e-07 0)
(3 5.70603e-07 0)
(3 7.10387e-06 0)
(3.00004 4.39685e-05 0)
(3 2.43207e-05 0)
(3.00185 -0.00697281 0)
(3.00247 0.0116889 0)
(3.12472 0.00808362 0)
(3.31793 0.609467 0)
(2.70639 1.05614 0)
(1.76207 0.984058 0)
(3 -1.96944e-33 0)
(3 -5.13189e-17 0)
(3 1.53957e-16 0)
(3 2.86229e-16 0)
(3 3.84806e-16 0)
(3 3.37055e-16 0)
(3 2.73622e-15 0)
(3 -2.62869e-14 0)
(3 8.36868e-14 0)
(3 1.75981e-12 0)
(3 1.45893e-12 0)
(3 8.18792e-11 0)
(3 -2.03195e-10 0)
(3 3.90467e-09 0)
(3 -3.33191e-09 0)
(3 2.30296e-07 0)
(3 1.92446e-07 0)
(3 9.70816e-06 0)
(3.00003 7.88091e-05 0)
(2.99897 0.000739763 0)
(3.00998 0.00507506 0)
(2.98237 0.0445448 0)
(3.31946 0.331256 0)
(3.17348 0.93153 0)
(2.30181 1.07198 0)
(3 -1.02638e-16 0)
(3 -2.43056e-16 0)
(3 -3.40092e-16 0)
(3 -2.07336e-16 0)
(3 -3.58355e-16 0)
(3 -8.47167e-16 0)
(3 -1.23078e-15 0)
(3 2.53695e-15 0)
(3 -1.81341e-14 0)
(3 2.80032e-13 0)
(3 2.17671e-12 0)
(3 1.4574e-11 0)
(3 1.07521e-10 0)
(3 6.29051e-10 0)
(3 3.80873e-09 0)
(3 1.60401e-08 0)
(3 2.48686e-08 0)
(3 -4.90442e-06 0)
(3.00002 0.000110388 0)
(3.00004 -0.000242348 0)
(3.00113 -0.00203581 0)
(3.00288 0.00785355 0)
(3.09848 0.0634584 0)
(3.42031 0.533433 0)
(2.9816 1.01713 0)
(3 -2.56595e-16 0)
(3 5.13189e-17 0)
(3 -3.59232e-16 0)
(3 -3.96481e-16 0)
(3 -6.24457e-16 0)
(3 -8.11603e-16 0)
(3 -1.00633e-15 0)
(3 3.50286e-17 0)
(3 1.36696e-14 0)
(3 1.58924e-13 0)
(3 1.48018e-12 0)
(3 1.29882e-11 0)
(3 -1.2113e-11 0)
(3 3.16891e-10 0)
(3 -1.39264e-09 0)
(3 2.19209e-08 0)
(3 9.62658e-08 0)
(3 8.84221e-07 0)
(3.00001 -8.14112e-07 0)
(3.00007 6.4894e-05 0)
(2.99942 0.000593927 0)
(3.00166 -0.00327825 0)
(3.007 0.0374234 0)
(3.19488 -0.113591 0)
(3.32967 0.820731 0)
(3 -6.04381e-17 0)
(3 1.53957e-16 0)
(3 2.56595e-16 0)
(3 2.05284e-16 0)
(3 1.73081e-16 0)
(3 2.80307e-16 0)
(3 4.12005e-16 0)
(3 7.4558e-16 0)
(3 3.79561e-15 0)
(3 4.85648e-14 0)
(3 -8.13327e-15 0)
(3 2.56909e-12 0)
(3 1.41585e-11 0)
(3 1.3056e-11 0)
(3 9.35649e-10 0)
(3 8.74146e-09 0)
(3 5.8469e-08 0)
(3 6.94906e-08 0)
(2.99999 3.2965e-06 0)
(3.00004 1.4765e-05 0)
(2.99998 3.63092e-05 0)
(3.00073 -0.000154471 0)
(3.00462 0.00721459 0)
(2.92285 0.0608802 0)
(3.40286 0.419243 0)
(3 5.13189e-17 0)
(3 3.84822e-17 0)
(3 2.05276e-16 0)
(3 1.96507e-16 0)
(3 6.21964e-16 0)
(3 8.29207e-16 0)
(3 1.0624e-15 0)
(3 1.19398e-15 0)
(3 3.53334e-15 0)
(3 1.11328e-14 0)
(3 8.73372e-14 0)
(3 8.81912e-13 0)
(3 3.47799e-12 0)
(3 5.59944e-11 0)
(3 -5.68382e-10 0)
(3 4.3093e-09 0)
(3 -1.55579e-08 0)
(3 1.26471e-07 0)
(3 6.89677e-07 0)
(3 -6.02935e-06 0)
(3.00001 3.2029e-05 0)
(3.00005 0.000446754 0)
(3.00234 0.00160135 0)
(3.0022 0.00785366 0)
(3.12073 0.080791 0)
(3 1.53957e-16 0)
(3 1.53957e-16 0)
(3 2.13847e-17 0)
(3 1.82721e-16 0)
(3 2.94844e-16 0)
(3 2.34171e-16 0)
(3 4.39694e-16 0)
(3 4.53754e-16 0)
(3 8.67808e-16 0)
(3 2.36118e-15 0)
(3 2.58788e-14 0)
(3 1.04689e-13 0)
(3 1.13337e-12 0)
(3 7.02312e-12 0)
(3 6.86063e-11 0)
(3 5.98162e-10 0)
(3 4.38933e-09 0)
(3 2.95452e-08 0)
(3 2.22966e-07 0)
(3 9.52985e-07 0)
(3.00001 1.31206e-05 0)
(3.00006 -3.78354e-05 0)
(3.00024 0.00110189 0)
(3.00218 -0.00142561 0)
(3.00903 0.0472001 0)
(3 -1.02638e-16 0)
(3 3.65435e-19 0)
(3 3.97996e-17 0)
(3 1.36002e-17 0)
(3 2.31646e-16 0)
(3 1.17621e-16 0)
(3 9.75038e-17 0)
(3 -2.5373e-17 0)
(3 5.78598e-16 0)
(3 1.83408e-15 0)
(3 1.09554e-14 0)
(3 7.86796e-14 0)
(3 6.22009e-13 0)
(3 4.56496e-12 0)
(3 3.51011e-11 0)
(3 3.08144e-10 0)
(3 -6.94394e-10 0)
(3 1.23804e-08 0)
(3 4.03778e-08 0)
(3 2.81333e-07 0)
(3 3.64181e-06 0)
(2.99994 2.97339e-05 0)
(3.00036 0.00023234 0)
(3.00079 0.000248041 0)
(3.00005 0.00765637 0)
(3 5.13189e-17 0)
(3 1.06404e-16 0)
(3 -2.22264e-17 0)
(3 1.71315e-16 0)
(3 1.24558e-16 0)
(3 2.41831e-16 0)
(3 7.93416e-17 0)
(3 -9.67821e-17 0)
(3 -5.51884e-17 0)
(3 -2.30662e-16 0)
(3 2.73604e-15 0)
(3 9.55371e-15 0)
(3 2.08876e-13 0)
(3 9.90144e-13 0)
(3 9.54241e-12 0)
(3 3.10393e-11 0)
(3 4.6187e-10 0)
(3 4.07442e-09 0)
(3 1.94528e-08 0)
(3 1.0846e-07 0)
(3 1.49019e-06 0)
(2.99999 -5.19732e-07 0)
(3.00007 6.69022e-05 0)
(2.99947 0.000404888 0)
(3.00404 0.00268294 0)
(3 1.18132e-16 0)
(3 3.02037e-16 0)
(3 5.20679e-16 0)
(3 2.08188e-16 0)
(3 5.81742e-17 0)
(3 -5.23494e-16 0)
(3 -7.02193e-16 0)
(3 -7.07163e-16 0)
(3 -8.26482e-16 0)
(3 -9.28509e-16 0)
(3 7.71842e-16 0)
(3 -1.0196e-15 0)
(3 3.11451e-14 0)
(3 3.44347e-13 0)
(3 2.14643e-12 0)
(3 1.72018e-11 0)
(3 4.64184e-11 0)
(3 1.04022e-09 0)
(3 5.37674e-09 0)
(3 -3.73496e-09 0)
(3 4.05745e-07 0)
(3 1.88282e-06 0)
(3.00002 1.30842e-05 0)
(3.00003 6.31098e-05 0)
(3.00049 -0.00148099 0)
(3 -9.80421e-17 0)
(3 -2.09871e-16 0)
(3 -3.07913e-16 0)
(3 -3.59232e-16 0)
(3 -3.07913e-16 0)
(3 -2.98353e-16 0)
(3 -3.17282e-16 0)
(3 -1.53853e-16 0)
(3 -9.02989e-18 0)
(3 2.16586e-16 0)
(3 5.99076e-16 0)
(3 1.86325e-15 0)
(3 9.32597e-15 0)
(3 2.81407e-14 0)
(3 1.17982e-13 0)
(3 -1.06893e-12 0)
(3 3.35669e-11 0)
(3 -3.59866e-10 0)
(3 2.20498e-09 0)
(3 5.60322e-09 0)
(3 1.07737e-07 0)
(3 1.77916e-07 0)
(3 4.24306e-06 0)
(3.00003 2.4069e-05 0)
(2.99968 0.000187791 0)
(3 -3.29991e-18 0)
(3 -1.01014e-16 0)
(3 5.13169e-17 0)
(3 2.56591e-16 0)
(3 3.5079e-16 0)
(3 4.09717e-16 0)
(3 4.10523e-16 0)
(3 2.56566e-16 0)
(3 5.1296e-17 0)
(3 -2.53841e-16 0)
(3 -5.7988e-16 0)
(3 -8.56616e-17 0)
(3 -7.51463e-15 0)
(3 2.12019e-14 0)
(3 7.31449e-14 0)
(3 1.0956e-12 0)
(3 5.47525e-12 0)
(3 4.87441e-11 0)
(3 2.97002e-10 0)
(3 6.8996e-10 0)
(3 1.3787e-08 0)
(3 1.06507e-07 0)
(3 -3.02317e-07 0)
(3.00001 -2.63901e-06 0)
(2.99994 -5.53713e-05 0)
(3 1.53957e-16 0)
(3 2.90643e-16 0)
(3 1.82139e-16 0)
(3 1.02638e-16 0)
(3 1.53957e-16 0)
(3 1.53957e-16 0)
(3 1.53957e-16 0)
(3 3.59232e-16 0)
(3 4.10551e-16 0)
(3 4.61853e-16 0)
(3 6.08872e-16 0)
(3 6.15268e-16 0)
(3 9.67691e-16 0)
(3 1.45242e-15 0)
(3 2.4611e-15 0)
(3 -4.92171e-14 0)
(3 7.93058e-13 0)
(3 -1.7454e-11 0)
(3 8.57876e-11 0)
(3 1.19569e-10 0)
(3 2.04102e-09 0)
(3 2.29219e-08 0)
(3 9.11713e-08 0)
(3 1.00947e-06 0)
(2.99999 2.50121e-06 0)
(3 -1.02638e-16 0)
(3 -3.59232e-16 0)
(3 -3.77615e-16 0)
(3 -7.69784e-16 0)
(3 -7.69784e-16 0)
(3 -8.09947e-16 0)
(3 -5.24343e-16 0)
(3 -6.67142e-16 0)
(3 -4.61879e-16 0)
(3 -2.43026e-16 0)
(3 -1.53486e-16 0)
(3 4.65107e-16 0)
(3 -1.62364e-16 0)
(3 1.70702e-15 0)
(3 5.53085e-15 0)
(3 5.61743e-14 0)
(3 8.87444e-14 0)
(3 2.49186e-12 0)
(3 7.27598e-12 0)
(3 2.7515e-11 0)
(3 -3.69776e-10 0)
(3 -1.77576e-09 0)
(3 -3.89678e-08 0)
(3.00001 7.26698e-08 0)
(2.99997 6.67778e-09 0)
(3 -1.02638e-16 0)
(3 -1.53957e-16 0)
(3 -1.53957e-16 0)
(3 -5.13189e-17 0)
(3 -5.13189e-17 0)
(3 -1.02638e-16 0)
(3 -5.13189e-17 0)
(3 -5.64508e-16 0)
(3 -7.18465e-16 0)
(3 -8.72421e-16 0)
(3 -8.21148e-16 0)
(3 -1.33369e-15 0)
(3 -1.90309e-15 0)
(3 -9.77399e-16 0)
(3 -3.73204e-16 0)
(3 2.16582e-14 0)
(3 1.99437e-13 0)
(3 1.14493e-12 0)
(3 1.64212e-11 0)
(3 1.21762e-10 0)
(3 1.14224e-09 0)
(3 1.21346e-08 0)
(3 1.89112e-08 0)
(3 -7.85057e-08 0)
(3 2.35827e-06 0)
(3 5.13189e-17 0)
(3 -5.13189e-17 0)
(3 5.13189e-17 0)
(3 9.19145e-18 0)
(3 9.34464e-17 0)
(3 -1.02638e-16 0)
(3 -1.02638e-16 0)
(3 -1.02638e-16 0)
(3 -5.13189e-17 0)
(3 -2.56535e-16 0)
(3 -4.03324e-16 0)
(3 -5.47907e-16 0)
(3 -7.45699e-16 0)
(3 1.51253e-16 0)
(3 5.28186e-16 0)
(3 3.57517e-15 0)
(3 1.20987e-14 0)
(3 6.00565e-13 0)
(3 -1.7425e-12 0)
(3 2.55262e-11 0)
(3 -8.21653e-11 0)
(3 -1.29058e-09 0)
(3 8.42939e-09 0)
(3 4.40589e-08 0)
(3 4.58185e-07 0)
(3 5.13189e-17 0)
(3 1.55253e-16 0)
(3 5.00227e-17 0)
(3 6.51061e-17 0)
(3 3.75317e-17 0)
(3 -2.56595e-16 0)
(3 -5.13189e-16 0)
(3 -6.67146e-16 0)
(3 -8.72421e-16 0)
(3 -8.7238e-16 0)
(3 -9.22203e-16 0)
(3 -8.22188e-16 0)
(3 -8.17938e-16 0)
(3 -8.07151e-16 0)
(3 -7.43344e-16 0)
(3 -3.30817e-15 0)
(3 -2.9794e-14 0)
(3 3.41307e-13 0)
(3 -1.36286e-12 0)
(3 1.18911e-11 0)
(3 -6.34073e-11 0)
(3 -1.76745e-10 0)
(3 6.11528e-09 0)
(3 -8.13632e-08 0)
(3 2.19375e-07 0)
(3 5.13189e-17 0)
(3 2.05276e-16 0)
(3 3.07913e-16 0)
(3 3.07913e-16 0)
(3 4.10551e-16 0)
(3 4.6187e-16 0)
(3 4.6187e-16 0)
(3 4.60791e-16 0)
(3 4.83134e-16 0)
(3 2.38417e-16 0)
(3 1.04327e-16 0)
(3 -9.82944e-17 0)
(3 -3.49436e-16 0)
(3 -1.0146e-15 0)
(3 -1.42421e-15 0)
(3 -9.59614e-17 0)
(3 1.02086e-14 0)
(3 3.88406e-14 0)
(3 4.42397e-13 0)
(3 2.76136e-12 0)
(3 3.62611e-11 0)
(3 2.01165e-10 0)
(3 1.40731e-09 0)
(3 2.15182e-10 0)
(3 3.40653e-08 0)
(3 -5.13189e-17 0)
(3 -1.02638e-16 0)
(3 -3.07913e-16 0)
(3 -3.74676e-16 0)
(3 -4.49955e-16 0)
(3 -5.28839e-16 0)
(3 -2.92263e-16 0)
(3 -1.09732e-16 0)
(3 -5.13189e-17 0)
(3 -1.53957e-16 0)
(3 -2.05276e-16 0)
(3 -3.59222e-16 0)
(3 -2.03034e-16 0)
(3 -6.38694e-16 0)
(3 -1.00185e-15 0)
(3 -9.73188e-16 0)
(3 1.73792e-15 0)
(3 2.14382e-15 0)
(3 1.99418e-13 0)
(3 1.15322e-12 0)
(3 1.61525e-11 0)
(3 9.77434e-11 0)
(3 5.80317e-10 0)
(3 -7.6359e-10 0)
(3 1.62368e-08 0)
(3 -1.02638e-16 0)
(3 -2.56595e-16 0)
(3 -5.64508e-16 0)
(3 -7.18465e-16 0)
(3 -8.72421e-16 0)
(3 -9.75059e-16 0)
(3 -9.11251e-16 0)
(3 -1.1533e-15 0)
(3 -1.10438e-15 0)
(3 -9.22536e-16 0)
(3 -6.14505e-16 0)
(3 -2.72428e-16 0)
(3 -1.94308e-18 0)
(3 1.29513e-16 0)
(3 2.47561e-16 0)
(3 5.56663e-16 0)
(3 1.67885e-15 0)
(3 -4.2263e-16 0)
(3 6.05277e-14 0)
(3 2.02102e-13 0)
(3 3.47152e-12 0)
(3 1.89984e-11 0)
(3 6.82883e-11 0)
(3 1.52456e-10 0)
(3 1.21567e-09 0)
(1.23677 1.09496 0)
(0.640952 0.690888 0)
(-0.562413 -0.0267832 0)
(-0.271159 -0.303993 0)
(-0.371364 -0.205986 0)
(-0.163071 -0.0179824 0)
(-0.590892 0.195709 0)
(-0.935636 0.19019 0)
(-1.13648 0.152172 0)
(-1.20869 0.10414 0)
(-1.2204 0.0548828 0)
(-1.21025 0.024084 0)
(-1.20519 0.0287662 0)
(-1.22795 0.021799 0)
(-1.29972 0.00247795 0)
(-1.35956 -0.0177656 0)
(-1.39912 -0.0183611 0)
(-1.41753 -0.0172049 0)
(-1.42257 -0.0159126 0)
(-1.42034 -0.0127635 0)
(-1.41943 -0.010571 0)
(-1.41921 -0.00860439 0)
(-1.42555 -0.00232948 0)
(-1.43139 -0.00232726 0)
(-1.43975 0.00199631 0)
(-1.44538 0.00542803 0)
(-1.44856 0.00694622 0)
(-1.44904 0.00667962 0)
(-1.44276 0.00805091 0)
(-1.4253 0.00720101 0)
(-1.40793 0.00923714 0)
(-1.36155 0.00832962 0)
(-1.30967 0.00563635 0)
(-1.25054 -0.000962746 0)
(-1.19021 -0.0106065 0)
(-1.11372 -0.0226635 0)
(-1.03943 -0.0326449 0)
(-0.952925 -0.0472128 0)
(-0.872955 -0.0522493 0)
(-0.796988 -0.0436714 0)
(-0.708925 -0.0372769 0)
(-0.620897 -0.0218625 0)
(-0.523877 -0.0138868 0)
(-0.432573 -0.00019265 0)
(-0.356895 0.0162695 0)
(-0.294943 0.00701245 0)
(-0.202578 -0.0146372 0)
(-0.116917 -0.0176768 0)
(-0.0403078 -0.0310512 0)
(0.0550173 -0.0305999 0)
(0.125555 -0.0257732 0)
(0.199223 -0.0272197 0)
(0.265939 -0.0264031 0)
(0.330664 -0.0268231 0)
(0.39064 -0.0263411 0)
(0.446246 -0.0257354 0)
(0.498302 -0.0245016 0)
(0.547048 -0.0229554 0)
(0.592675 -0.021423 0)
(0.6352 -0.0200173 0)
(0.67512 -0.0188977 0)
(0.712963 -0.0177636 0)
(0.749157 -0.0163977 0)
(0.783295 -0.0149517 0)
(0.815983 -0.0137649 0)
(0.846975 -0.0128708 0)
(0.876811 -0.0122388 0)
(0.905491 -0.0115166 0)
(0.932839 -0.0106628 0)
(0.959163 -0.00973374 0)
(0.984076 -0.0089811 0)
(1.00826 -0.00831385 0)
(1.03124 -0.00782393 0)
(1.05374 -0.00738184 0)
(1.07529 -0.00704868 0)
(1.09645 -0.00667426 0)
(1.11666 -0.00633082 0)
(1.13647 -0.00593987 0)
(1.1554 -0.00558911 0)
(1.17403 -0.00522361 0)
(1.19191 -0.00489721 0)
(1.20955 -0.0045421 0)
(1.22647 -0.00424808 0)
(1.24316 -0.00392893 0)
(1.25923 -0.00367146 0)
(1.2751 -0.003386 0)
(1.29063 -0.00318994 0)
(1.30594 -0.00292442 0)
(1.3211 -0.00278069 0)
(1.3361 -0.00252018 0)
(1.35103 -0.00240779 0)
(1.36585 -0.00214676 0)
(1.38066 -0.00211697 0)
(1.39537 -0.00189169 0)
(1.41014 -0.0019807 0)
(1.42476 -0.00168076 0)
(1.43981 -0.00190179 0)
(1.45477 -0.00134646 0)
(1.47071 -0.00136068 0)
(1.48891 0.000513833 0)
(1.26724 0.99781 0)
(1.24495 0.774672 0)
(0.786734 0.602709 0)
(0.659198 0.275627 0)
(-0.0987093 0.0957388 0)
(-0.203249 0.19017 0)
(-0.558536 0.275975 0)
(-0.802492 0.149451 0)
(-0.907606 0.0713644 0)
(-0.891671 -0.0480202 0)
(-0.826848 -0.0337059 0)
(-0.788716 -0.0341963 0)
(-0.783265 -0.0297125 0)
(-0.837963 -0.00860296 0)
(-0.908753 -0.00819636 0)
(-0.971533 0.0386696 0)
(-1.00849 0.0525259 0)
(-1.02101 0.0375185 0)
(-1.02287 0.0225697 0)
(-1.01815 0.00947361 0)
(-1.01805 0.00865315 0)
(-1.01753 0.00827779 0)
(-1.02191 0.00953516 0)
(-1.02493 0.00538292 0)
(-1.03783 0.0073776 0)
(-1.04528 0.0016999 0)
(-1.04957 0.00235665 0)
(-1.04383 -0.00329921 0)
(-1.03312 -0.00235647 0)
(-1.00505 -0.00716886 0)
(-0.978366 -0.0137681 0)
(-0.932988 -0.0232174 0)
(-0.878189 -0.0324362 0)
(-0.819767 -0.0390749 0)
(-0.759675 -0.0345458 0)
(-0.675153 -0.0427459 0)
(-0.60163 -0.0240411 0)
(-0.49536 -0.0407936 0)
(-0.414582 -0.0315985 0)
(-0.34402 -0.0347458 0)
(-0.215941 -0.0690761 0)
(-0.122793 -0.0897389 0)
(0.0288984 -0.117504 0)
(0.155214 -0.123744 0)
(0.285153 -0.12339 0)
(0.417877 -0.129646 0)
(0.528349 -0.129537 0)
(0.608005 -0.11886 0)
(0.683382 -0.112082 0)
(0.73976 -0.10868 0)
(0.790473 -0.0967453 0)
(0.840483 -0.0904622 0)
(0.885576 -0.0837036 0)
(0.925906 -0.0776656 0)
(0.961402 -0.0697258 0)
(0.994563 -0.0635503 0)
(1.02454 -0.0577857 0)
(1.05334 -0.0528197 0)
(1.08034 -0.0482782 0)
(1.10555 -0.0439277 0)
(1.13021 -0.0401943 0)
(1.15381 -0.0373691 0)
(1.17685 -0.0348383 0)
(1.19859 -0.0324499 0)
(1.21963 -0.0301408 0)
(1.23964 -0.0277914 0)
(1.25916 -0.0256512 0)
(1.27822 -0.0234581 0)
(1.29684 -0.0216644 0)
(1.31507 -0.0200707 0)
(1.33237 -0.0187136 0)
(1.34936 -0.0173932 0)
(1.36563 -0.0162997 0)
(1.38159 -0.0152314 0)
(1.39697 -0.0143118 0)
(1.41218 -0.0132771 0)
(1.42668 -0.0123109 0)
(1.44096 -0.0112682 0)
(1.45458 -0.010415 0)
(1.46802 -0.00953692 0)
(1.48093 -0.0088557 0)
(1.49373 -0.00812568 0)
(1.50606 -0.00754377 0)
(1.51828 -0.00688404 0)
(1.53021 -0.00642237 0)