/*--------------------------------*- C++ -*----------------------------------*\
| =========                 |                                                 |
| \\      /  F ield         | OpenFOAM: The Open Source CFD Toolbox           |
|  \\    /   O peration     | Version:  v2106                                 |
|   \\  /    A nd           | Website:  www.openfoam.com                      |
|    \\/     M anipulation  |                                                 |
\*---------------------------------------------------------------------------*/
FoamFile
{
    version     2.0;
    format      ascii;
    arch        "LSB;label=32;scalar=64";
    class       volScalarField;
    location    "6";
    object      p;
}
// * * * * * * * * * * * * * * * * * * * * * * * * * * * * * * * * * * * * * //

dimensions      [1 -1 -2 0 0 0 0];

internalField   nonuniform List<scalar> 
5250
(
1
1
1
1
1
1
1
1
1.00002
1.00009
1.00128
1.00923
1.09948
1.67412
4.05968
10.5097
11.5204
11.0275
11.3408
11.6002
11.6996
11.8726
11.9914
12.0829
12.1332
1
1
1
1
1
1
1
1
1.00002
1.00009
1.00124
1.00899
1.0966
1.65839
4.00119
10.4097
11.565
11.0077
11.3316
11.5843
11.6805
11.857
11.9754
12.067
12.1165
1
1
1
1
1
1
1
1
1.00002
1.00008
1.0012
1.00838
1.09202
1.62475
3.87157
10.1568
11.6383
10.9383
11.2834
11.5378
11.6269
11.7959
11.9141
11.9964
12.0421
1
1
1
1
1
1
1
1
1.00001
1.00011
1.00104
1.00882
1.08158
1.57125
3.67475
9.7726
11.7775
10.8445
11.2188
11.4701
11.5395
11.7113
11.8148
11.8957
11.9342
1
1
1
1
1
1
1
1
1.00001
1.0001
1.00084
1.00747
1.06597
1.50164
3.4093
9.24594
11.9172
10.7184
11.1172
11.3581
11.4234
11.5731
11.6908
11.7499
11.7984
1
1
1
1
1
1
1
1
1.00001
1.00008
1.00067
1.00617
1.05183
1.41661
3.05824
8.57136
12.156
10.5959
11.0347
11.2611
11.2951
11.4417
11.5238
11.5815
11.5895
1
1
1
1
1
1
1
1
1.00001
1.00006
1.0005
1.00507
1.03885
1.33494
2.7293
7.69255
12.3442
10.4915
10.932
11.138
11.1682
11.2407
11.3122
11.3186
11.3589
1
1
1
1
1
1
1
1
1
1.00004
1.00037
1.00329
1.02788
1.26381
2.42765
6.81683
12.373
10.4008
10.8001
10.9908
10.9823
11.0548
11.0571
11.0613
10.9402
1
1
1
1
1
1
1
1
1
1.00003
1.00026
1.00222
1.02033
1.2086
2.18424
5.99197
11.8532
10.483
10.6627
10.882
10.7491
10.7797
10.6932
10.6128
10.3812
1
1
1
1
1
1
1
1
1
1.00003
1.00015
1.00208
1.01515
1.15994
1.95814
5.20105
11.0298
10.429
10.522
10.6677
10.5354
10.4778
10.2588
10.2698
9.33644
1
1
1
1
1
1
1
1
1
1.00002
1.0001
1.00164
1.01066
1.12132
1.75156
4.39795
10.0556
10.4737
10.3331
10.3336
10.2695
10.0874
9.65563
9.30354
6.82803
1
1
1
1
1
1
1
1
1
1.00001
1.00011
1.00104
1.00876
1.08057
1.56163
3.65509
8.88579
10.5437
10.1751
10.0237
9.88337
9.65679
9.06544
8.50766
6.57276
1
1
1
1
1
1
1
1
1
1
1.00008
1.00044
1.00611
1.04373
1.38902
2.96732
7.56695
10.5959
9.81458
9.71805
9.57088
9.30479
8.7322
8.02575
6.68259
1
1
1
1
1
1
1
1
1
1
1.00004
1.00031
1.00337
1.02656
1.24918
2.36229
6.27405
10.594
9.58348
9.48346
9.34373
9.0164
8.47647
7.7997
6.66294
1
1
1
1
1
1
1
1
1
1
1.00002
1.00019
1.00144
1.01566
1.16924
2.00705
5.18609
9.82065
9.50842
9.27761
9.12394
8.77184
8.26148
7.60132
6.63935
1
1
1
1
1
1
1
1
1
1
1.00002
1.0001
1.00135
1.00951
1.10459
1.67554
4.11399
8.54215
9.46166
9.10962
8.85864
8.50149
8.04119
7.44585
6.63169
1
1
1
1
1
1
1
1
1
1
1.00001
1.00008
1.00073
1.00634
1.05632
1.42974
3.13981
7.06218
9.36553
8.9081
8.61059
8.29201
7.87904
7.35617
6.62267
1
1
1
1
1
1
1
1
1
1
1
1.00004
1.00027
1.00315
1.02371
1.23303
2.28992
5.62678
9.07074
8.76591
8.47519
8.17377
7.77436
7.28893
6.63261
1
1
1
1
1
1
1
1
1
1
1
1.00003
1.00015
1.0019
1.01348
1.13833
1.85227
4.40997
8.1584
8.76576
8.42569
8.06772
7.66266
7.19797
6.61493
1
1
1
1
1
1
1
1
1
1
1
1.00001
1.0001
1.00089
1.00749
1.06442
1.4848
3.27359
6.74034
8.62922
8.25285
7.92239
7.55097
7.1236
6.59801
1
1
1
1
1
1
1
1
1
1
1
1
1.00005
1.00028
1.00341
1.02417
1.24248
2.29772
5.27585
8.21514
8.14622
7.84966
7.49412
7.07842
6.59241
1
1
1
1
1
1
1
1
1
1
1
1
1.00002
1.0002
1.00173
1.01415
1.1195
1.79021
3.98676
7.20231
8.16651
7.84364
7.45298
7.03913
6.58238
1
1
1
1
1
1
1
1
1
1
1
1
1
1.00009
1.00046
1.00593
1.0411
1.39814
2.85579
5.81179
7.94914
7.70948
7.37964
6.99168
6.5658
1
1
1
1
1
1
1
1
1
1
1
1
1
1.00004
1.00031
1.00261
1.02034
1.1697
2.00752
4.34269
7.14621
7.63887
7.33947
6.98173
6.5775
1
1
1
1
1
1
1
1
1
1
1
1
1
1
1.00014
1.00055
1.00864
1.05386
1.53214
3.15991
5.89775
7.5107
7.27967
6.96564
6.59812
1
1
1
1
1
1
1
1
1
1
1
1
1
1.00001
1.00005
1.00038
1.00321
1.02357
1.19814
2.10881
4.43776
6.86851
7.26117
6.95608
6.62337
1
1
1
1
1
1
1
1
1
1
1
1
1
1
1
1.00018
1.00052
1.01025
1.06072
1.58905
3.19731
5.70446
7.14379
6.9412
6.65523
1
1
1
1
1
1
1
1
1
1
1
1
1
1
1.00001
1.00006
1.00041
1.00345
1.02398
1.21004
2.11709
4.3104
6.527
6.94867
6.67759
1
1
1
1
1
1
1
1
1
1
1
1
1
1
1
1.00002
1.00013
0.99976
1.00874
1.05316
1.55817
3.06357
5.42618
6.85227
6.6996
1
1
1
1
1
1
1
1
1
1
1
1
1
1
1
1
1.00005
1.00039
1.00335
1.02413
1.19948
2.13936
4.12623
6.15867
6.74405
1
1
1
1
1
1
1
1
1
1
1
1
1
1
1
1
1.00001
1.0001
1.00067
1.0068
1.05027
1.42261
2.74824
4.87124
6.38614
1
1
1
1
1
1
1
1
1
1
1
1
1
1
1
1
1.00001
1.00005
1.0003
0.999277
1.01935
1.04504
1.80777
3.59616
5.59854
1
1
1
1
1
1
1
1
1
1
1
1
1
1
1
1
1
0.999997
1.00009
1.00046
1.00593
1.03656
1.32563
2.44708
4.39051
1
1
1
1
1
1
1
1
1
1
1
1
1
1
1
1
1
1
1.00002
1.00017
1.00093
1.01198
1.05744
1.66039
3.0886
1
1
1
1
1
1
1
1
1
1
1
1
1
1
1
1
1
1
1.00001
1.00007
1.00055
1.00442
1.02964
1.24416
2.19372
1
1
1
1
1
1
1
1
1
1
1
1
1
1
1
1
1
1
1
1.00001
1.00014
1.00056
1.00671
1.04613
1.41099
1
1
1
1
1
1
1
1
1
1
1
1
1
1
1
1
1
1
1
1.00001
1.00008
1.00042
0.999716
1.01916
1.03305
1
1
1
1
1
1
1
1
1
1
1
1
1
1
1
1
1
1
1
1
1.00001
1.0001
1.00044
1.00493
1.03099
1
1
1
1
1
1
1
1
1
1
1
1
1
1
1
1
1
1
1
1
1
1.00003
1.00014
1.00125
1.00743
1
1
1
1
1
1
1
1
1
1
1
1
1
1
1
1
1
1
1
1
1
1
1.00005
1.00051
1.00124
1
1
1
1
1
1
1
1
1
1
1
1
1
1
1
1
1
1
1
1
1
1
1.00001
1.00007
1.00051
1
1
1
1
1
1
1
1
1
1
1
1
1
1
1
1
1
1
1
1
1
1
1
1.00003
1.0001
1
1
1
1
1
1
1
1
1
1
1
1
1
1
1
1
1
1
1
1
1
1
1
1.00002
1.00021
1
1
1
1
1
1
1
1
1
1
1
1
1
1
1
1
1
1
1
1
1
1
1
1
1.00004
1
1
1
1
1
1
1
1
1
1
1
1
1
1
1
1
1
1
1
1
1
1
1
1
1.00003
1
1
1
1
1
1
1
1
1
1
1
1
1
1
1
1
1
1
1
1
1
1
1
1
1.00003
1
1
1
1
1
1
1
1
1
1
1
1
1
1
1
1
1
1
1
1
1
1
1
1
1.00003
1
1
1
1
1
1
1
1
1
1
1
1
1
1
1
1
1
1
1
1
1
1
1
1
1.00003
1
1
1
1
1
1
1
1
1
1
1
1
1
1
1
1
1
1
1
1
1
1
1
1
1.00003
1
1
1
1
1
1
1
1
1
1
1
1
1
1
1
1
1
1
1
1
1
1
1
1
1.00003
2.72509
3.13549
3.93107
3.46087
3.81227
3.69922
3.3508
2.84597
2.63302
2.62773
2.64551
2.65241
2.64092
2.55916
2.41548
2.31885
2.28347
2.27944
2.2842
2.28734
2.28572
2.28225
2.27749
2.2657
2.25436
2.2459
2.24248
2.25095
2.27562
2.31872
2.38312
2.47672
2.58582
2.69612
2.82423
2.97628
3.13413
3.29415
3.423
3.59394
3.77129
3.94203
4.1314
4.2872
4.40839
4.53759
4.65434
4.73999
4.82849
4.89111
4.92725
4.94964
4.95915
4.95708
4.95082
4.93404
4.91161
4.88224
4.84996
4.81483
4.77623
4.73406
4.68997
4.64425
4.59795
4.55124
4.50416
4.45672
4.40939
4.3623
4.31574
4.26977
4.22443
4.17965
4.13548
4.09194
4.04913
4.00707
3.96592
3.92482
3.88421
3.84336
3.80258
3.76159
3.72064
3.67971
3.63916
3.59902
3.55954
3.52013
3.48119
3.44207
3.40328
3.36394
3.32477
3.2843
3.24359
3.19986
3.15611
3.12977
4.15263
4.0172
3.60664
3.60498
4.06535
3.85612
3.42628
2.74108
2.47872
2.49211
2.59907
2.63567
2.5974
2.49834
2.39061
2.32424
2.28892
2.28927
2.29156
2.2931
2.29382
2.28729
2.28608
2.26998
2.25393
2.24437
2.24029
2.25343
2.28435
2.32815
2.37961
2.46192
2.55911
2.66049
2.78887
2.94739
3.11204
3.30015
3.44587
3.6065
3.78638
3.94393
4.11996
4.26091
4.36952
4.50916
4.63521
4.72581
4.81436
4.8798
4.91846
4.94061
4.95195
4.94956
4.94349
4.92664
4.90477
4.87651
4.84393
4.80894
4.77065
4.72852
4.68463
4.63947
4.59328
4.54679
4.49997
4.4528
4.40576
4.35896
4.31266
4.2669
4.22168
4.17707
4.13302
4.0896
4.04693
4.00504
3.96405
3.92315
3.8827
3.842
3.80133
3.76041
3.71946
3.67857
3.63803
3.59797
3.55856
3.51928
3.48037
3.44132
3.40252
3.36336
3.32409
3.28395
3.24283
3.19868
3.1527
3.12532
5.00259
4.37988
4.05596
3.8642
3.89564
3.63635
3.07509
2.59894
2.5372
2.59383
2.67217
2.67101
2.66628
2.61317
2.4692
2.30107
2.2502
2.25411
2.27686
2.28422
2.28116
2.2726
2.26359
2.256
2.25234
2.24774
2.24177
2.25147
2.2732
2.31152
2.36928
2.46316
2.58115
2.69034
2.80484
2.94821
3.10118
3.25258
3.37567
3.54119
3.73148
3.90313
4.09365
4.24997
4.36439
4.48214
4.60576
4.69233
4.7779
4.84046
4.88293
4.91205
4.9233
4.92088
4.91904
4.90489
4.88598
4.85912
4.82789
4.79533
4.75885
4.71793
4.67441
4.62967
4.58401
4.53808
4.49194
4.44523
4.39849
4.35235
4.30679
4.26186
4.21749
4.17337
4.1295
4.08596
4.04294
4.00109
3.96026
3.9196
3.87941
3.83903
3.79849
3.7577
3.71685
3.676
3.63559
3.59567
3.55643
3.51732
3.47841
3.43952
3.40066
3.36167
3.32233
3.28238
3.24106
3.19637
3.14797
3.11855
5.38163
4.52217
4.12133
3.87661
3.85416
3.67042
3.26096
2.80171
2.62436
2.57235
2.61477
2.63801
2.59862
2.47348
2.32459
2.28403
2.27659
2.28339
2.30126
2.29537
2.30181
2.28807
2.29075
2.26862
2.24936
2.23359
2.23108
2.24395
2.27859
2.32311
2.35966
2.43611
2.52933
2.6232
2.75115
2.90054
3.05643
3.23748
3.37127
3.52059
3.68818
3.85677
4.01163
4.17178
4.28671
4.40883
4.53428
4.64344
4.7212
4.79478
4.85155
4.87296
4.88887
4.89303
4.89065
4.87742
4.86135
4.83912
4.80905
4.77764
4.74215
4.70201
4.65932
4.6159
4.57145
4.52609
4.48016
4.43403
4.38839
4.34326
4.29868
4.25451
4.21066
4.16692
4.12332
4.07992
4.03712
3.99529
3.95455
3.91428
3.87422
3.83406
3.79381
3.75335
3.71269
3.67212
3.63195
3.59232
3.55322
3.51435
3.47551
3.43669
3.3978
3.35885
3.31954
3.27971
3.23844
3.19345
3.14322
3.11138
5.53832
4.75669
4.23073
3.96744
3.90367
3.74319
3.29917
2.81856
2.61007
2.56806
2.63352
2.65321
2.61758
2.54713
2.43358
2.33822
2.27964
2.26595
2.28041
2.28607
2.2821
2.27031
2.25917
2.24614
2.24458
2.24278
2.24032
2.24799
2.26058
2.29148
2.35075
2.42848
2.53256
2.62238
2.73896
2.86388
3.00369
3.15085
3.26571
3.40849
3.58533
3.75348
3.90883
4.06686
4.19799
4.33561
4.4583
4.57072
4.65284
4.72989
4.7829
4.81811
4.84101
4.84283
4.84286
4.83789
4.82181
4.80557
4.7795
4.75004
4.71734
4.68063
4.64062
4.59829
4.5545
4.50994
4.46516
4.42036
4.37569
4.33175
4.28867
4.24583
4.2032
4.16049
4.11735
4.07368
4.03025
3.98821
3.94768
3.9077
3.86799
3.82823
3.78822
3.74785
3.70744
3.66725
3.6274
3.58792
3.54885
3.51004
3.47119
3.43235
3.39343
3.35445
3.31518
3.27541
3.23427
3.1892
3.13775
3.1039
5.69567
4.96231
4.44347
4.11186
3.97467
3.79535
3.42193
2.99892
2.73394
2.65053
2.65594
2.65786
2.61267
2.51091
2.38303
2.30846
2.27922
2.2806
2.29795
2.29367
2.29714
2.28109
2.28372
2.26205
2.25505
2.23197
2.23643
2.25125
2.27393
2.30627
2.3411
2.38686
2.46335
2.53758
2.63185
2.72831
2.85991
2.99564
3.14422
3.30615
3.47724
3.62525
3.77212
3.91878
4.06501
4.20671
4.32766
4.44977
4.56095
4.64364
4.70717
4.77005
4.77575
4.7855
4.78927
4.78878
4.77841
4.76553
4.74872
4.72396
4.69295
4.65724
4.61689
4.57555
4.53439
4.49222
4.4492
4.40542
4.36138
4.3186
4.27676
4.23524
4.1936
4.15123
4.10811
4.06484
4.02207
3.9803
3.9397
3.89989
3.86032
3.82067
3.78089
3.74086
3.70082
3.66101
3.62146
3.58224
3.54327
3.50447
3.46567
3.42688
3.388
3.34903
3.3098
3.27008
3.22904
3.18399
3.13184
3.09671
5.82008
5.11651
4.61176
4.27868
4.08141
3.85703
3.54989
3.21645
2.89907
2.72728
2.67875
2.66219
2.62928
2.56409
2.45547
2.35318
2.3073
2.28471
2.28739
2.28603
2.286
2.27578
2.26937
2.25573
2.26543
2.24884
2.28175
2.30314
2.30171
2.32574
2.3511
2.36824
2.3957
2.44158
2.5171
2.59551
2.70037
2.7903
2.92244
3.07489
3.22313
3.38026
3.54507
3.73263
3.91015
4.07608
4.19965
4.31695
4.42309
4.53604
4.62837
4.69714
4.72167
4.72405
4.72578
4.72601
4.72791
4.71582
4.70602
4.69018
4.65833
4.62329
4.5901
4.55538
4.51627
4.47369
4.42919
4.38625
4.34543
4.3052
4.26481
4.22382
4.18212
4.14023
4.09821
4.0559
4.01353
3.97177
3.93121
3.89143
3.85185
3.81218
3.77237
3.73264
3.69312
3.65375
3.61452
3.57535
3.5363
3.49738
3.45847
3.41959
3.38068
3.34171
3.30254
3.26287
3.22195
3.177
3.12441
3.08853
5.90699
5.25604
4.74484
4.41866
4.17109
3.96999
3.69723
3.3893
3.0949
2.85409
2.73284
2.69787
2.65968
2.6157
2.52219
2.40286
2.31002
2.28106
2.28294
2.29233
2.2991
2.2838
2.28671
2.26702
2.3121
2.26356
2.38149
2.44884
2.44094
2.45635
2.42738
2.38286
2.37241
2.39041
2.42445
2.46967
2.5315
2.59486
2.69335
2.80276
2.91999
3.04627
3.21567
3.41296
3.62687
3.86315
4.06354
4.19263
4.29497
4.38905
4.49937
4.59722
4.65118
4.67641
4.6745
4.67034
4.66905
4.67006
4.66215
4.64878
4.62656
4.59203
4.5598
4.5273
4.49093
4.452
4.41089
4.36901
4.32863
4.28925
4.24982
4.21013
4.16981
4.12869
4.0871
4.04563
4.00435
3.96321
3.92225
3.88178
3.84183
3.80223
3.76283
3.72343
3.68416
3.64505
3.60611
3.56714
3.52821
3.48928
3.45041
3.41151
3.37259
3.33358
3.29437
3.25465
3.21373
3.16877
3.11596
3.07959
5.96004
5.35972
4.87519
4.54296
4.26304
4.07021
3.82796
3.54962
3.26131
3.00449
2.83194
2.75157
2.70226
2.64759
2.5707
2.46883
2.36949
2.31338
2.29863
2.29447
2.29883
2.29738
2.30342
2.31597
2.368
2.43122
2.57446
2.69542
2.69507
2.68351
2.60036
2.50298
2.4357
2.41224
2.41189
2.43035
2.45431
2.49309
2.54255
2.60161
2.66289
2.75092
2.8859
3.02517
3.20935
3.45065
3.71333
3.98694
4.19599
4.29895
4.39111
4.445
4.51618
4.59742
4.61759
4.63195
4.6143
4.60944
4.60307
4.59085
4.57957
4.55869
4.53148
4.50117
4.46474
4.42644
4.38724
4.34864
4.31064
4.27249
4.23378
4.19443
4.15461
4.11464
4.07473
4.03468
3.99405
3.95289
3.9114
3.87046
3.83012
3.79033
3.75095
3.71192
3.67313
3.63443
3.59578
3.55711
3.51845
3.47967
3.44083
3.40187
3.36279
3.32361
3.28428
3.24447
3.20353
3.15862
3.1057
3.06899
6.00253
5.44947
4.98983
4.64403
4.35949
4.16634
3.94069
3.6779
3.40458
3.14477
2.94318
2.81991
2.75835
2.6946
2.62738
2.53639
2.45423
2.37068
2.32623
2.30309
2.2932
2.30743
2.31619
2.38901
2.49828
2.81884
3.04854
3.12105
3.11214
3.00821
2.83397
2.68411
2.56949
2.49606
2.45714
2.44057
2.43896
2.44778
2.46505
2.49093
2.51661
2.57513
2.64396
2.71157
2.845
3.0133
3.2098
3.50025
3.84638
4.15788
4.34017
4.36887
4.40333
4.44876
4.51102
4.55762
4.57495
4.56628
4.54773
4.53378
4.52972
4.52481
4.50313
4.47659
4.43971
4.39896
4.36224
4.32736
4.29167
4.25514
4.21758
4.17883
4.13967
4.10131
4.06285
4.0237
3.98351
3.94273
3.90113
3.85939
3.81821
3.77815
3.73902
3.70041
3.662
3.62369
3.58539
3.5469
3.50826
3.46939
3.43043
3.39138
3.35221
3.31295
3.27355
3.2336
3.19247
3.14737
3.09421
3.05709
6.04432
5.52917
5.08836
4.73427
4.45516
4.25237
4.03734
3.79124
3.53685
3.28467
3.06704
2.9152
2.81921
2.7448
2.68123
2.61058
2.52891
2.44609
2.37406
2.32444
2.31372
2.32527
2.37268
2.48537
2.77587
3.26481
3.65838
3.67415
3.58803
3.35098
3.11394
2.92726
2.79553
2.70093
2.62334
2.55926
2.51098
2.47707
2.45819
2.45667
2.4614
2.47782
2.49728
2.52703
2.60094
2.66693
2.79234
3.00652
3.2627
3.59009
4.00168
4.30456
4.41412
4.38753
4.39554
4.42225
4.47233
4.50189
4.51509
4.50144
4.48433
4.47806
4.45949
4.43681
4.41076
4.37412
4.33844
4.30581
4.27213
4.23594
4.19772
4.15948
4.12215
4.08522
4.04798
4.01002
3.97059
3.92937
3.88677
3.84415
3.803
3.7634
3.72463
3.68631
3.64822
3.61019
3.57209
3.53385
3.49549
3.45685
3.41798
3.37889
3.33956
3.29999
3.26022
3.21987
3.17843
3.13309
3.07979
3.04244
6.07928
5.59654
5.17351
4.81441
4.54445
4.32992
4.12938
3.9057
3.66863
3.42865
3.19887
3.02363
2.89236
2.80176
2.73258
2.66844
2.59443
2.51196
2.42389
2.35716
2.34401
2.37053
2.45915
2.6934
3.21461
3.94859
4.24396
4.14902
3.94654
3.67428
3.43644
3.24427
3.08501
2.95065
2.83739
2.73996
2.65887
2.59282
2.53527
2.49144
2.45946
2.44271
2.44259
2.44831
2.46464
2.48107
2.54833
2.64295
2.76991
3.01241
3.34856
3.74291
4.17476
4.40045
4.39091
4.36442
4.36366
4.39066
4.44019
4.45119
4.43952
4.43116
4.41397
4.39207
4.37745
4.356
4.32044
4.28338
4.24809
4.21343
4.17786
4.1421
4.10662
4.07056
4.03328
3.99443
3.95447
3.91428
3.87376
3.83207
3.79061
3.75091
3.71241
3.67428
3.63604
3.59785
3.5596
3.52133
3.48295
3.44439
3.40547
3.36619
3.32658
3.28663
3.24647
3.20568
3.1638
3.11808
3.06457
3.02722
6.10364
5.65475
5.24881
4.89935
4.6282
4.40748
4.21677
4.00668
3.77817
3.55425
3.32473
3.12837
2.97807
2.86596
2.78055
2.72174
2.64848
2.56868
2.47057
2.4152
2.40095
2.45852
2.64163
3.11365
3.92001
4.66474
4.62418
4.4624
4.22523
3.9811
3.76286
3.55693
3.3653
3.19923
3.0605
2.94473
2.84689
2.75865
2.6784
2.60573
2.54452
2.49432
2.45797
2.43257
2.41591
2.4129
2.42367
2.44664
2.50887
2.62883
2.79949
3.06121
3.4537
3.95001
4.29847
4.41418
4.35646
4.32015
4.32322
4.3576
4.38167
4.38531
4.36779
4.34986
4.33727
4.32224
4.29667
4.26452
4.22983
4.193
4.15778
4.1248
4.09147
4.05633
4.01904
3.97973
3.9396
3.89912
3.85867
3.81828
3.77767
3.73768
3.69836
3.65981
3.62152
3.58339
3.5451
3.50662
3.46782
3.4289
3.38969
3.35033
3.3108
3.27065
3.22994
3.18857
3.14627
3.10039
3.0471
3.00994
6.14222
5.71716
5.32626
4.98766
4.71172
4.4843
4.29906
4.10125
3.88085
3.66018
3.44802
3.23518
3.06975
2.93894
2.83987
2.77092
2.7007
2.61514
2.52579
2.48869
2.5099
2.64638
3.0347
3.79036
4.63702
4.92645
4.85873
4.68279
4.46602
4.25171
4.04071
3.83492
3.63772
3.46466
3.31049
3.17626
3.05644
2.94708
2.84047
2.75288
2.67991
2.60795
2.53846
2.47305
2.42634
2.39582
2.38394
2.37934
2.38668
2.42056
2.47952
2.61483
2.83364
3.16047
3.61577
4.13591
4.39367
4.38382
4.30074
4.2717
4.28322
4.31382
4.31991
4.31359
4.3002
4.28577
4.26609
4.2388
4.20819
4.17512
4.13996
4.10534
4.07229
4.03789
4.00164
3.96394
3.92432
3.88367
3.84318
3.8037
3.76504
3.7262
3.68674
3.64691
3.60721
3.568
3.5291
3.49035
3.45152
3.41264
3.37335
3.33347
3.29333
3.25265
3.21152
3.17003
3.12768
3.08205
3.02919
2.99214
6.1919
5.78571
5.40627
5.07198
4.79328
4.56545
4.37481
4.18104
3.97678
3.76065
3.55234
3.34574
3.16208
3.01991
2.90876
2.81996
2.74346
2.66003
2.60853
2.61275
2.71098
3.02819
3.69983
4.59593
5.06802
5.04323
4.95669
4.81969
4.65443
4.47674
4.28304
4.08326
3.88747
3.70279
3.53293
3.38021
3.24691
3.11992
3.00982
2.91648
2.82409
2.7327
2.64662
2.57467
2.51075
2.45431
2.40672
2.36594
2.33839
2.34109
2.34802
2.38456
2.4662
2.62805
2.89983
3.29897
3.82176
4.24819
4.39652
4.30413
4.21997
4.20095
4.23001
4.2655
4.2548
4.24144
4.22524
4.20195
4.17497
4.15115
4.1253
4.09199
4.05518
4.01878
3.98177
3.94437
3.90714
3.87021
3.83175
3.79139
3.75005
3.70955
3.66965
3.62956
3.58928
3.54916
3.50957
3.47051
3.4318
3.393
3.35388
3.31385
3.27334
3.23213
3.19048
3.14885
3.10662
3.06154
3.00935
2.97232
6.24461
5.8608
5.49151
5.15915
4.87454
4.64415
4.44833
4.25872
4.06198
3.85629
3.64534
3.4448
3.25272
3.0978
2.97844
2.87161
2.78405
2.73366
2.72875
2.81293
3.08856
3.69809
4.57946
5.0936
5.12118
5.08552
5.02116
4.93252
4.81368
4.66883
4.4946
4.30395
4.11285
3.92589
3.75073
3.59277
3.44377
3.31021
3.19324
3.07961
2.96939
2.87369
2.78436
2.701
2.62769
2.55238
2.47907
2.41762
2.36935
2.33817
2.30825
2.29285
2.30933
2.35451
2.47359
2.66729
2.99535
3.4544
4.0216
4.31247
4.33142
4.23335
4.17428
4.15848
4.18075
4.18771
4.18917
4.17677
4.15152
4.12299
4.09663
4.07224
4.04286
4.00754
3.96774
3.92651
3.88818
3.85132
3.81467
3.77725
3.73723
3.69553
3.65316
3.61137
3.5702
3.52987
3.49026
3.45077
3.41154
3.37187
3.33208
3.29186
3.25111
3.20941
3.1674
3.12625
3.08449
3.04027
2.98895
2.95185
6.30643
5.94127
5.57769
5.24442
4.9552
4.71683
4.51194
4.32634
4.13695
3.93936
3.73814
3.54062
3.34944
3.18606
3.05139
2.9151
2.85963
2.84747
2.91995
3.16708
3.74105
4.60291
5.17447
5.23794
5.18775
5.13461
5.08343
5.02071
4.92954
4.80547
4.65536
4.48593
4.30856
4.12802
3.95333
3.78632
3.63078
3.4916
3.36033
3.23185
3.11941
3.0234
2.92409
2.83244
2.73745
2.65318
2.5851
2.51823
2.45068
2.38778
2.33079
2.29322
2.25576
2.24419
2.27397
2.34887
2.49243
2.74611
3.11413
3.6155
4.12506
4.33478
4.28011
4.14087
4.09816
4.10689
4.12716
4.12957
4.1221
4.10666
4.07265
4.03695
4.00455
3.97303
3.94074
3.90415
3.86569
3.8284
3.79016
3.75248
3.71465
3.67453
3.63191
3.58851
3.54649
3.50606
3.46669
3.42722
3.38847
3.34916
3.30873
3.26722
3.22525
3.18332
3.14167
3.10164
3.06066
3.01689
2.96615
2.92886
6.37495
6.02508
5.6705
5.32938
5.02998
4.78145
4.5701
4.38476
4.19725
4.00684
3.81336
3.62945
3.44576
3.26936
3.10719
3.00676
2.9738
3.03074
3.25428
3.814
4.67032
5.31811
5.39837
5.31196
5.23011
5.18274
5.14579
5.09569
5.01968
4.91457
4.78839
4.64297
4.48378
4.31355
4.14126
3.97161
3.81266
3.66488
3.51853
3.38736
3.27469
3.16561
3.05907
2.9576
2.85756
2.78053
2.69686
2.61379
2.53273
2.46059
2.39699
2.33168
2.27287
2.23239
2.20915
2.22814
2.26273
2.35893
2.52992
2.82308
3.24337
3.79785
4.18013
4.2789
4.17338
4.06454
4.0205
4.03623
4.06181
4.06445
4.0596
4.02671
3.97979
3.94061
3.90974
3.88093
3.8472
3.81318
3.77471
3.73219
3.69045
3.64959
3.60826
3.56599
3.52388
3.48323
3.44388
3.40458
3.36452
3.32418
3.28364
3.24182
3.1986
3.1561
3.11435
3.07491
3.03512
2.99217
2.9421
2.90475
6.40327
6.09491
5.75689
5.41872
5.11069
4.84519
4.62412
4.43812
4.25775
4.07079
3.88246
3.70517
3.53674
3.3508
3.19804
3.14108
3.16889
3.35715
3.88049
4.73644
5.47735
5.60627
5.4835
5.35911
5.29338
5.25423
5.21159
5.15743
5.08835
5.0014
4.89386
4.76558
4.62089
4.46416
4.30608
4.14255
3.9855
3.82402
3.67598
3.54751
3.42578
3.29901
3.18298
3.07264
2.98233
2.88589
2.78946
2.70004
2.61955
2.54226
2.46945
2.39835
2.33293
2.27033
2.22556
2.1923
2.18261
2.19725
2.24361
2.37055
2.58679
2.92473
3.38598
3.94364
4.21112
4.20588
4.09079
4.00149
3.96506
3.97686
3.98727
3.98464
3.95931
3.92127
3.88187
3.84424
3.81114
3.78144
3.75082
3.71132
3.66657
3.62184
3.57975
3.53902
3.498
3.45715
3.41743
3.3778
3.3378
3.29576
3.25363
3.21186
3.1691
3.12635
3.085
3.04612
3.00794
2.96601
2.91626
2.87875
6.45307
6.13627
5.81386
5.48972
5.18414
4.91438
4.67979
4.48842
4.31699
4.13862
3.95462
3.7792
3.61019
3.44038
3.34871
3.34241
3.49022
3.96577
4.82032
5.65248
5.85185
5.70164
5.53911
5.44602
5.3871
5.32988
5.27469
5.21682
5.15334
5.07609
4.98121
4.86759
4.73582
4.59429
4.44202
4.28426
4.12214
3.96418
3.8311
3.69229
3.55458
3.41997
3.30048
3.19162
3.08193
2.97628
2.88505
2.79856
2.71507
2.63249
2.55226
2.47326
2.39813
2.32871
2.26608
2.21304
2.17527
2.14811
2.14279
2.18683
2.25144
2.39143
2.63808
2.99924
3.50907
4.01054
4.20866
4.13634
4.0009
3.918
3.8832
3.90496
3.91028
3.8971
3.87168
3.83045
3.78727
3.74879
3.71724
3.68378
3.64422
3.60038
3.5538
3.51043
3.47117
3.43135
3.39101
3.35046
3.30908
3.26748
3.22324
3.17946
3.13693
3.09507
3.05454
3.01547
2.97799
2.93743
2.88836
2.85097
6.36782
6.12092
5.84613
5.54838
5.25152
4.99077
4.74875
4.5477
4.38112
4.2108
4.02396
3.85605
3.6822
3.56938
3.54348
3.66503
4.08869
4.92126
5.84166
6.14445
5.95859
5.75452
5.63157
5.55459
5.47818
5.40838
5.34324
5.27945
5.21263
5.1381
5.05189
4.95213
4.83678
4.70866
4.56185
4.41212
4.25256
4.10801
3.95676
3.80609
3.66479
3.54191
3.4197
3.29777
3.17607
3.07125
2.9763
2.88664
2.80189
2.7189
2.63556
2.55395
2.47433
2.40079
2.33755
2.27643
2.22068
2.17566
2.14478
2.12495
2.12645
2.1509
2.23913
2.40311
2.71249
3.14665
3.72632
4.07239
4.11527
4.01013
3.89693
3.83081
3.81584
3.82776
3.81436
3.79755
3.76269
3.72211
3.68239
3.64748
3.61049
3.56949
3.5238
3.47826
3.43751
3.39893
3.35839
3.31931
3.27779
3.23495
3.18909
3.14338
3.10103
3.06168
3.02149
2.98205
2.94509
2.90673
2.85883
2.82165
6.3939
6.17051
5.90742
5.63156
5.34448
5.08486
4.84529
4.63135
4.46235
4.29254
4.10077
3.92415
3.79798
3.75333
3.85699
4.25589
5.05956
6.05964
6.46979
6.24671
5.99926
5.85245
5.7634
5.67194
5.58033
5.49602
5.41808
5.34592
5.27216
5.19641
5.11347
5.02186
4.91761
4.80031
4.67202
4.53197
4.38684
4.23532
4.07901
3.93215
3.79309
3.66245
3.53248
3.40367
3.28783
3.17753
3.07538
2.97732
2.887
2.80028
2.71663
2.63328
2.5505
2.47324
2.41055
2.35199
2.29481
2.23939
2.1873
2.13418
2.1003
2.07111
2.08061
2.1389
2.2689
2.49609
2.81965
3.27821
3.81264
4.05069
4.02988
3.90658
3.80104
3.73931
3.72427
3.72423
3.72479
3.7061
3.66913
3.62219
3.57459
3.52979
3.48809
3.44502
3.40223
3.36584
3.32645
3.28444
3.24202
3.19869
3.15548
3.11149
3.06743
3.02709
2.98771
2.94881
2.91157
2.87477
2.82803
2.79097
6.01368
6.23864
5.99364
5.73808
5.46029
5.18686
4.94372
4.71584
4.52813
4.36129
4.16387
4.03122
3.98794
4.0685
4.44052
5.23248
6.30574
6.80653
6.55296
6.26594
6.09508
5.99305
5.89003
5.78178
5.67754
5.57972
5.49219
5.41151
5.33183
5.25258
5.16968
5.08092
4.98435
4.87723
4.7597
4.63003
4.49298
4.34768
4.20439
4.05767
3.91379
3.7751
3.64224
3.51734
3.39748
3.28329
3.17592
3.07552
2.97989
2.88833
2.80277
2.71658
2.63256
2.55138
2.47903
2.42009
2.36366
2.30622
2.25105
2.19588
2.14167
2.0865
2.04899
2.05479
2.08474
2.1459
2.28427
2.56183
2.92621
3.43179
3.85695
3.98243
3.91453
3.78188
3.69486
3.65614
3.661
3.65576
3.64181
3.60442
3.54819
3.49015
3.44154
3.40146
3.36144
3.32722
3.29059
3.24791
3.20538
3.16327
3.11995
3.07535
3.03013
2.98889
2.95211
2.91364
2.87573
2.84003
2.79524
2.75877
5.04907
6.10624
6.01558
5.79646
5.56972
5.30077
5.06062
4.80894
4.57364
4.41522
4.27055
4.20004
4.30319
4.67699
5.46336
6.60905
7.18549
6.91293
6.58866
6.38142
6.25915
6.13911
6.0188
5.89922
5.7846
5.67589
5.57545
5.48253
5.39493
5.30939
5.22367
5.13479
5.04109
4.93961
4.83054
4.71185
4.58547
4.45148
4.31233
4.16899
4.02624
3.8867
3.75281
3.62342
3.49926
3.3815
3.26991
3.16493
3.06552
2.97116
2.88071
2.79404
2.70967
2.62747
2.54856
2.47909
2.416
2.35723
2.30006
2.24533
2.1893
2.13173
2.07776
2.0398
2.01871
2.01542
2.06817
2.1617
2.35329
2.64155
3.04026
3.56937
3.84118
3.85286
3.7705
3.67124
3.60421
3.58029
3.5689
3.55968
3.51774
3.45855
3.40029
3.35332
3.31539
3.28324
3.25154
3.21607
3.17307
3.12616
3.07966
3.034
2.98996
2.94918
2.9139
2.87733
2.83777
2.80182
2.7591
2.72353
3.91683
5.55774
6.09688
5.88738
5.63238
5.36124
5.12571
4.89242
4.61942
4.47867
4.45226
4.51756
4.90889
5.74626
6.96669
7.58673
7.30199
6.94416
6.69013
6.53848
6.40308
6.27207
6.14133
6.01497
5.89209
5.77334
5.6614
5.5586
5.46245
5.36933
5.27859
5.18685
5.09284
4.99445
4.89037
4.77934
4.66056
4.53531
4.40327
4.26806
4.12966
3.99162
3.85562
3.72435
3.59794
3.47661
3.36056
3.25029
3.14674
3.0487
2.95482
2.86523
2.78003
2.69886
2.62189
2.548
2.48052
2.41855
2.35974
2.3036
2.2488
2.19338
2.13536
2.07786
2.03289
2.00894
1.99643
2.00354
2.06129
2.17705
2.3913
2.7229
3.13459
3.5921
3.78104
3.75156
3.6457
3.55125
3.49101
3.4668
3.44686
3.41241
3.36164
3.3122
3.27093
3.23548
3.20629
3.17403
3.13831
3.09447
3.04566
2.99582
2.94968
2.90797
2.87078
2.83731
2.79985
2.76143
2.71981
2.68544
2.54234
4.31513
5.65967
5.8405
5.64293
5.42594
5.17323
4.92001
4.72984
4.63793
4.76094
5.17212
6.05822
7.39277
8.08885
7.76986
7.36038
7.053
6.87518
6.72323
6.57915
6.42909
6.28265
6.1418
6.00755
5.87864
5.75532
5.63975
5.53219
5.43061
5.33271
5.23556
5.1384
5.03927
4.93756
4.83128
4.72007
4.60277
4.47988
4.35198
4.22
4.08565
3.95196
3.82099
3.69412
3.57203
3.45454
3.34154
3.2338
3.13196
3.03588
2.94464
2.85673
2.77374
2.69427
2.62081
2.55334
2.49077
2.43037
2.37279
2.31496
2.25351
2.18876
2.12866
2.07469
2.02626
1.98926
1.96995
1.94302
1.98215
2.05735
2.18775
2.43566
2.80223
3.28974
3.61351
3.67887
3.62217
3.50812
3.40159
3.35183
3.33649
3.30607
3.26823
3.23546
3.19725
3.16047
3.12722
3.09543
3.05388
3.003
2.95007
2.90128
2.85879
2.82265
2.7899
2.75736
2.72075
2.67913
2.64555
1.65907
3.06292
4.8264
5.70348
5.65569
5.47544
5.25836
5.02171
4.93251
5.00994
5.46251
6.42136
7.85749
8.62313
8.27521
7.80012
7.42435
7.21312
7.05767
6.90219
6.73762
6.5712
6.41691
6.26946
6.12631
5.98804
5.85532
5.72851
5.60919
5.49703
5.39075
5.28763
5.18574
5.08401
4.98131
4.87677
4.7692
4.65776
4.54168
4.42061
4.29575
4.16722
4.03761
3.90887
3.78245
3.65898
3.53892
3.42307
3.31155
3.20539
3.10561
3.01176
2.92256
2.83666
2.75434
2.67699
2.60602
2.54121
2.48031
2.42149
2.36248
2.30236
2.24151
2.18441
2.12946
2.07727
2.02725
1.98029
1.94579
1.92293
1.91562
1.9313
2.03005
2.20903
2.51021
2.89
3.35063
3.5569
3.54954
3.45622
3.34275
3.26405
3.22338
3.20455
3.18155
3.14742
3.11367
3.08627
3.05401
3.00894
2.95396
2.89912
2.85066
2.8111
2.77621
2.7409
2.71167
2.68019
2.6392
2.60547
1.26312
2.18793
3.7925
5.27334
5.79381
5.60362
5.32507
5.20632
5.307
5.81583
6.85464
8.41156
9.20633
8.80835
8.27392
7.83671
7.59413
7.43426
7.26385
7.08681
6.9007
6.72537
6.55721
6.39582
6.24108
6.09324
5.95155
5.81576
5.68552
5.56226
5.446
5.33497
5.22719
5.12144
5.01632
4.911
4.80487
4.69668
4.58564
4.47093
4.35268
4.23138
4.10785
3.98359
3.85964
3.73715
3.61698
3.50026
3.38792
3.28102
3.18035
3.08542
2.99511
2.9085
2.82572
2.74646
2.67292
2.60594
2.54489
2.48419
2.42503
2.3628
2.30102
2.23911
2.18298
2.12828
2.0799
2.03275
1.98562
1.93644
1.89494
1.86497
1.86722
1.92136
2.03046
2.25374
2.58959
3.01201
3.32287
3.41497
3.37776
3.28802
3.20476
3.14401
3.10945
3.08024
3.05713
3.03138
3.00093
2.95496
2.89539
2.84049
2.79614
2.75843
2.72487
2.69616
2.6702
2.63903
2.5993
2.56574
1.04584
1.4239
2.55621
4.09489
5.33136
5.49442
5.41682
5.48589
6.14407
7.37954
9.02461
9.77864
9.32056
8.73795
8.26257
7.98564
7.81501
7.63063
7.43758
7.24435
7.06199
6.88395
6.70692
6.53416
6.36911
6.21134
6.06014
5.91389
5.77276
5.63772
5.50977
5.38866
5.27268
5.16078
5.05176
4.94444
4.83785
4.73083
4.62277
4.51232
4.39986
4.28477
4.16808
4.04961
3.93035
3.81065
3.69194
3.57532
3.46241
3.35484
3.25294
3.15694
3.06535
2.97735
2.89175
2.81023
2.73427
2.66487
2.59935
2.536
2.47301
2.41017
2.34679
2.28607
2.22845
2.17421
2.12371
2.0726
2.02371
1.97136
1.91583
1.85486
1.82387
1.81591
1.82131
1.90905
2.05459
2.29481
2.68956
3.07278
3.2695
3.2802
3.22552
3.13481
3.06037
3.01737
2.9889
2.96703
2.93621
2.89774
2.84512
2.7917
2.74783
2.70866
2.67531
2.65311
2.63147
2.59923
2.55765
2.52608
1.02236
1.03946
1.59416
2.84385
4.39808
5.18582
5.54114
6.41955
8.11696
9.95931
10.4757
9.88553
9.20485
8.69925
8.42001
8.24291
8.04636
7.82938
7.61649
7.41426
7.22123
7.02624
6.83626
6.65547
6.4829
6.3168
6.15626
6.00062
5.84978
5.70447
5.56612
5.43537
5.31174
5.19379
5.08045
4.97066
4.86282
4.75603
4.64867
4.54081
4.4318
4.32226
4.21101
4.09894
3.98496
3.87003
3.75426
3.63951
3.52821
3.42146
3.32081
3.22555
3.13419
3.04593
2.96005
2.8768
2.8008
2.73128
2.66393
2.59798
2.53161
2.46526
2.39983
2.33691
2.27696
2.22046
2.1685
2.11549
2.06319
2.00801
1.95178
1.89186
1.8404
1.79629
1.77817
1.76856
1.79554
1.90019
2.10122
2.41109
2.79987
3.08717
3.17204
3.14456
3.0615
2.98016
2.91996
2.88559
2.85914
2.83249
2.79314