/*--------------------------------*- C++ -*----------------------------------*\
| =========                 |                                                 |
| \\      /  F ield         | OpenFOAM: The Open Source CFD Toolbox           |
|  \\    /   O peration     | Version:  v2106                                 |
|   \\  /    A nd           | Website:  www.openfoam.com                      |
|    \\/     M anipulation  |                                                 |
\*---------------------------------------------------------------------------*/
FoamFile
{
    version     2.0;
    format      ascii;
    arch        "LSB;label=32;scalar=64";
    class       surfaceScalarField;
    location    "6";
    object      phi;
}
// * * * * * * * * * * * * * * * * * * * * * * * * * * * * * * * * * * * * * //

dimensions      [1 0 -1 0 0 0 0];

oriented        oriented;

internalField   nonuniform List<scalar> 
10325
(
0.0084507
1.89112e-16
0.0084507
-1.4054e-15
0.0084507
-1.85049e-15
0.0084507
-4.10968e-14
0.0084507
-4.83077e-13
0.0084507
-3.33045e-12
0.0084507
4.64387e-12
0.0084507
8.78958e-12
0.00845063
4.48956e-10
0.00845039
2.75296e-09
0.00844565
3.30901e-08
0.00841715
2.88506e-07
0.00811156
2.91656e-06
0.00714367
2.38586e-05
0.00628174
8.14397e-05
0.00710372
0.000904467
0.00694709
0.000503495
0.0063514
0.000597698
0.0056314
0.00065704
0.00496296
0.00071199
0.00414996
0.000816641
0.0032471
0.000904088
0.00226538
0.000988355
0.00119909
0.00107311
0.00120241
0.0084507
2.5533e-16
0.0084507
-1.57689e-15
0.0084507
3.12836e-15
0.0084507
-3.00025e-14
0.0084507
-3.95669e-13
0.0084507
-8.6143e-12
0.0084507
1.67287e-11
0.0084507
-9.38957e-11
0.00845063
9.6486e-10
0.0084504
2.51009e-10
0.00844581
6.16087e-08
0.00841821
3.78485e-07
0.00812056
5.67927e-06
0.0071575
4.99592e-05
0.00627854
0.0001765
0.00700265
0.00185556
0.00688654
0.00101334
0.00629297
0.00119414
0.00558514
0.00130454
0.00491647
0.00142373
0.00408848
0.00164938
0.00317804
0.00181643
0.00218069
0.0019935
0.00111381
0.00214813
0.0023209
0.0084507
-1.26499e-16
0.0084507
3.89017e-15
0.0084507
8.82673e-15
0.0084507
2.60491e-13
0.0084507
1.42052e-12
0.0084507
-1.0353e-11
0.0084507
1.2621e-10
0.0084507
-4.24427e-10
0.00845063
2.96899e-09
0.00845044
-1.03088e-08
0.008446
6.128e-08
0.00842061
4.09857e-07
0.00814722
-5.39542e-06
0.00720446
7.84762e-05
0.00630657
0.000273126
0.00689075
0.0028263
0.0068555
0.00156117
0.00625322
0.00180217
0.00553923
0.00196064
0.0048698
0.00213939
0.00406571
0.00246072
0.00317219
0.00271651
0.00219353
0.00298489
0.00112175
0.00323451
0.00345431
0.0084507
5.09575e-17
0.0084507
9.60224e-16
0.0084507
7.17373e-15
0.0084507
1.20151e-13
0.0084507
5.60359e-13
0.0084507
-1.00955e-12
0.0084507
9.92942e-11
0.0084507
-4.29122e-11
0.00845065
2.75167e-09
0.00845027
5.88772e-09
0.00844675
8.10137e-08
0.00841737
1.18041e-06
0.00817322
-5.68667e-06
0.00725374
0.000103015
0.0063221
0.000375251
0.00667322
0.00381722
0.00680654
0.00212679
0.00621136
0.00240062
0.00550251
0.00261042
0.00485392
0.00283724
0.00406392
0.00325826
0.00319777
0.00358711
0.00220814
0.00398804
0.00113435
0.00432361
0.00460082
0.0084507
7.32894e-16
0.0084507
-1.00121e-15
0.0084507
9.66081e-15
0.0084507
-2.6455e-14
0.0084507
2.81484e-13
0.0084507
5.80444e-13
0.0084507
3.11547e-11
0.0084507
8.33292e-11
0.00845066
2.26669e-09
0.00845035
6.84797e-09
0.00844748
1.48449e-07
0.00842312
9.30541e-07
0.00820998
8.32034e-06
0.00732714
0.000115404
0.00637993
0.000452422
0.00651088
0.00472914
0.00677499
0.00284586
0.00618193
0.00299625
0.00549073
0.00324405
0.00485544
0.00352141
0.00412169
0.00399917
0.00325923
0.00445806
0.00228385
0.00498184
0.00118289
0.00544183
0.00580032
0.0084507
6.18971e-16
0.0084507
-6.90799e-16
0.0084507
1.16046e-14
0.0084507
-4.38005e-14
0.0084507
6.40992e-13
0.0084507
2.91885e-13
0.0084507
4.03735e-11
0.0084507
1.055e-10
0.00845067
2.57975e-09
0.00845041
9.58158e-09
0.00844818
1.68816e-07
0.00842939
-8.58241e-07
0.00826906
1.11833e-05
0.00746867
0.000109471
0.00655694
0.000414885
0.00645466
0.00539428
0.00683551
0.00389954
0.00617639
0.00364904
0.00543936
0.00392379
0.0048441
0.00416151
0.00408984
0.00475562
0.00330499
0.00526104
0.00234367
0.00595517
0.001221
0.00657928
0.00705154
0.0084507
-5.68176e-16
0.0084507
1.05783e-15
0.0084507
-3.38165e-15
0.0084507
6.18198e-14
0.0084507
1.02032e-14
0.0084507
2.71588e-12
0.0084507
1.20982e-11
0.0084507
1.54798e-10
0.00845069
1.86251e-09
0.00845047
1.40103e-09
0.00844875
2.85527e-07
0.00843524
-4.69621e-06
0.00831845
1.12151e-05
0.00760848
9.22818e-05
0.00673302
0.000271215
0.0066294
0.00528281
0.00731358
0.00542931
0.00650777
0.00445057
0.00570913
0.00467235
0.00498557
0.00493123
0.00432116
0.00540012
0.00355266
0.00606464
0.00257442
0.00697713
0.00148056
0.00769932
0.0085505
0.0084507
-6.53503e-16
0.0084507
1.24255e-15
0.0084507
-3.6176e-15
0.0084507
4.54318e-14
0.0084507
6.44341e-16
0.0084507
3.89339e-13
0.0084507
1.75361e-11
0.0084507
7.1773e-11
0.00845069
1.20649e-09
0.00845055
-4.15775e-09
0.00844939
2.33391e-07
0.00843705
-3.29785e-06
0.00835177
8.52397e-06
0.00773642
7.18793e-05
0.00681241
0.000162904
0.0069622
0.00441685
0.00788844
0.006988
0.00692554
0.00539247
0.00603457
0.00552194
0.0053656
0.00564966
0.00461893
0.00615002
0.00367154
0.00700817
0.0027732
0.0079116
0.00158475
0.00890109
0.0102386
0.0084507
-1.08908e-16
0.0084507
2.36275e-16
0.0084507
-6.0959e-15
0.0084507
1.84487e-14
0.0084507
-2.05358e-13
0.0084507
-1.19184e-12
0.0084507
1.32456e-11
0.0084507
-2.07185e-11
0.00845069
9.4224e-10
0.00845059
4.42204e-09
0.00844986
7.43834e-08
0.00843881
4.71435e-07
0.00837516
5.86046e-06
0.00784378
5.72352e-05
0.00680729
0.000192802
0.0071096
0.00321629
0.00874329
0.00802501
0.00769137
0.00644803
0.00674717
0.00641959
0.00599527
0.00646478
0.00511664
0.0070435
0.00432137
0.00783581
0.00343482
0.00886827
0.00234185
0.0100482
0.0127109
0.0084507
5.78422e-17
0.0084507
-1.01866e-15
0.0084507
-8.39687e-16
0.0084507
2.83241e-14
0.0084507
7.45861e-14
0.0084507
1.76629e-12
0.0084507
-2.55236e-11
0.0084507
1.10222e-11
0.0084507
6.44311e-10
0.00845059
5.35667e-09
0.00845019
5.49064e-08
0.00844261
4.55093e-07
0.00839798
4.40781e-06
0.00795919
4.70191e-05
0.00690936
0.000256591
0.00694626
0.00226228
0.00902215
0.00847212
0.00846517
0.00700935
0.00763956
0.00722226
0.00675027
0.00743664
0.00585437
0.00795932
0.0050054
0.00870279
0.00403318
0.00987947
0.00252303
0.0115848
0.0157452
0.0084507
-2.47957e-16
0.0084507
7.61408e-16
0.0084507
1.50617e-14
0.0084507
-9.66287e-15
0.0084507
5.61925e-13
0.0084507
6.56163e-13
0.0084507
1.30686e-11
0.0084507
3.17434e-10
0.0084507
-2.33533e-10
0.0084506
8.14791e-09
0.00845041
1.77004e-08
0.00844442
2.98176e-07
0.00841416
3.43861e-06
0.00809489
3.26264e-07
0.00713183
0.000280662
0.00681309
0.00165819
0.00894407
0.00849765
0.00876724
0.00735669
0.00830495
0.00769721
0.00758198
0.00821895
0.00674441
0.00885831
0.00603642
0.0094956
0.00549129
0.0105761
0.00533784
0.0120463
0.0132641
0.00848002
0.0084507
-2.89048e-16
0.0084507
2.50396e-16
0.0084507
1.0921e-14
0.0084507
-1.49692e-14
0.0084507
2.63081e-13
0.0084507
-6.01538e-13
0.0084507
5.46271e-12
0.0084507
2.70195e-10
0.0084507
1.08339e-10
0.00845066
7.17214e-09
0.00845028
2.80583e-08
0.00844683
2.42023e-07
0.00841857
3.32484e-06
0.0081836
-6.34888e-06
0.00731558
0.000253254
0.00677045
0.00125014
0.00848288
0.00820587
0.00895975
0.00769025
0.00878373
0.00794406
0.00817678
0.00883407
0.00770451
0.00936777
0.00722859
0.0100008
0.00722438
0.0105886
0.00760177
0.0115023
0.0118391
0.00993429
0.0084507
-2.1169e-17
0.0084507
1.94235e-16
0.0084507
1.29568e-15
0.0084507
1.61446e-14
0.0084507
8.13288e-14
0.0084507
2.02849e-12
0.0084507
9.81493e-12
0.0084507
2.96339e-11
0.0084507
5.31467e-10
0.0084507
2.61115e-09
0.00845036
3.66499e-08
0.0084492
2.47002e-07
0.00843433
-4.05698e-06
0.00827952
2.20057e-05
0.00753419
0.000183041
0.00684706
0.000913815
0.00779355
0.00768969
0.00872658
0.00842137
0.00869499
0.00805218
0.00865913
0.008847
0.00842704
0.00959343
0.00833665
0.0101214
0.00844614
0.0105946
0.00890176
0.0109877
0.01094
0.0104395
0.0084507
-2.81622e-17
0.0084507
1.77484e-16
0.0084507
1.17384e-15
0.0084507
1.71396e-14
0.0084507
1.05754e-13
0.0084507
4.93417e-13
0.0084507
7.84848e-12
0.0084507
5.76415e-12
0.0084507
3.79292e-10
0.0084507
1.11608e-09
0.00845054
2.44732e-08
0.00844971
1.32835e-07
0.00843926
-5.37778e-06
0.0083666
1.25739e-05
0.00781926
0.000111627
0.00708702
0.000526149
0.00789271
0.00590289
0.00914191
0.00981069
0.0088002
0.00837548
0.00885144
0.0087858
0.00890916
0.00955775
0.00909119
0.0100188
0.00936886
0.0104264
0.00982095
0.0106404
0.0104649
0.0107985
0.0084507
-3.7405e-18
0.0084507
6.22603e-17
0.0084507
2.65196e-16
0.0084507
5.18503e-15
0.0084507
3.10682e-14
0.0084507
-7.6463e-14
0.0084507
9.37517e-13
0.0084507
1.78504e-11
0.0084507
7.78774e-11
0.00845069
1.19868e-09
0.00845066
7.1611e-09
0.00845002
8.90847e-08
0.00843986
2.51356e-07
0.00839172
7.0264e-06
0.00795645
7.51219e-05
0.00703696
0.000418519
0.00782715
0.00400813
0.0100026
0.0106124
0.00941611
0.00906345
0.00919434
0.00895572
0.00927683
0.00948063
0.00952032
0.00989105
0.00987571
0.0101852
0.0103001
0.0103273
0.00994046
0.011173
0.0084507
-2.26327e-17
0.0084507
1.44524e-16
0.0084507
-3.23363e-17
0.0084507
4.31621e-15
0.0084507
1.09389e-14
0.0084507
1.63658e-13
0.0084507
2.49024e-12
0.0084507
-2.79563e-12
0.0084507
1.12801e-10
0.0084507
2.12213e-10
0.00845063
6.39888e-09
0.00845041
3.51907e-08
0.00844533
4.10564e-07
0.00841975
3.74726e-06
0.00813113
4.38384e-05
0.00723797
0.000373991
0.0074982
0.00256169
0.0103184
0.00991823
0.0101983
0.00974659
0.00980197
0.00949278
0.00969135
0.00961438
0.00983308
0.00980178
0.0101625
0.00990745
0.0106172
0.0099599
0.00952519
0.0112999
0.0084507
-3.02221e-17
0.0084507
8.01225e-17
0.0084507
-4.11726e-17
0.0084507
2.09883e-15
0.0084507
3.35983e-15
0.0084507
1.49528e-14
0.0084507
2.03915e-12
0.0084507
-2.12744e-12
0.0084507
1.02234e-10
0.0084507
1.78891e-10
0.00845067
5.70997e-09
0.0084504
2.81111e-08
0.00844803
3.42641e-07
0.00842824
2.76509e-06
0.00827377
2.44698e-05
0.00755918
0.000261117
0.007385
0.00153701
0.00946766
0.00848101
0.0105222
0.0103219
0.0103069
0.00987161
0.0101268
0.0097397
0.0101275
0.00976956
0.0103629
0.00971363
0.0107696
0.00964828
0.00926548
0.0112646
0.0084507
9.48677e-19
0.0084507
-1.15196e-17
0.0084507
8.39444e-17
0.0084507
1.07068e-15
0.0084507
9.47468e-15
0.0084507
8.18683e-14
0.0084507
-1.1459e-13
0.0084507
2.77421e-12
0.0084507
3.11936e-11
0.0084507
2.74147e-10
0.0084507
2.38264e-09
0.00845054
2.19709e-08
0.00844991
1.90084e-07
0.00843977
1.73203e-06
0.00837645
1.52374e-05
0.00789086
0.000139618
0.00725688
0.000985602
0.00858387
0.00605222
0.0108131
0.0108908
0.0106394
0.0101418
0.010519
0.00981571
0.0105375
0.00975785
0.010689
0.00964218
0.0109699
0.00945728
0.00910665
0.0113238
0.0084507
8.13152e-20
0.0084507
1.9597e-17
0.0084507
2.27845e-16
0.0084507
2.85985e-16
0.0084507
1.2388e-14
0.0084507
5.39572e-14
0.0084507
4.58407e-13
0.0084507
3.79991e-12
0.0084507
-1.14834e-12
0.0084507
1.99032e-10
0.0084507
5.44728e-10
0.00845061
1.22914e-08
0.00845031
6.72473e-08
0.00844431
8.7119e-07
0.00841215
6.53388e-06
0.00807873
7.05274e-05
0.00737011
0.000629761
0.00836677
0.00383221
0.0112992
0.0104883
0.0113351
0.0105274
0.0111506
0.0102241
0.0109937
0.00993498
0.0110055
0.00968272
0.0111514
0.00938559
0.00899323
0.0114199
0.0084507
-1.0842e-19
0.0084507
1.10318e-17
0.0084507
9.75782e-17
0.0084507
1.30646e-16
0.0084507
4.05833e-15
0.0084507
1.91499e-14
0.0084507
2.56499e-13
0.0084507
3.75377e-13
0.0084507
2.12025e-12
0.0084507
1.13647e-10
0.0084507
4.72284e-10
0.00845066
6.84667e-09
0.00845036
4.4322e-08
0.00844779
4.66009e-07
0.00842631
3.72944e-06
0.00826669
3.39132e-05
0.00761755
0.000361625
0.00792879
0.00220536
0.0107002
0.00877824
0.0118061
0.0110463
0.0116343
0.0106676
0.0114352
0.010121
0.011345
0.00977968
0.0113741
0.00940026
0.00895247
0.0115257
0.0084507
2.1684e-19
0.0084507
4.52654e-18
0.0084507
4.09286e-18
0.0084507
2.99619e-16
0.0084507
1.63687e-16
0.0084507
1.81793e-14
0.0084507
9.18037e-14
0.0084507
-3.34902e-13
0.0084507
8.68375e-12
0.0084507
1.80563e-11
0.0084507
4.36579e-10
0.0084507
2.17274e-09
0.00845053
2.80678e-08
0.00845002
2.02036e-07
0.00843965
1.87888e-06
0.00838395
1.70322e-05
0.00796082
0.000139353
0.00755725
0.00134094
0.00920095
0.00612255
0.0118853
0.0112188
0.0118305
0.0107088
0.0118272
0.0102539
0.0117432
0.00990818
0.0117107
0.00949441
0.00901346
0.0117393
0.0084507
-5.42101e-20
0.0084507
2.08709e-18
0.0084507
2.08709e-18
0.0084507
1.21593e-16
0.0084507
-5.22423e-16
0.0084507
8.41585e-15
0.0084507
3.57745e-14
0.0084507
4.76317e-13
0.0084507
4.70806e-12
0.0084507
1.62949e-12
0.0084507
2.557e-10
0.0084507
8.87257e-10
0.00845063
1.43806e-08
0.00845009
9.13866e-08
0.00844543
8.20499e-07
0.00840926
7.97749e-06
0.00815806
4.99959e-05
0.00763077
0.000707217
0.00880048
0.00369484
0.0121098
0.0100305
0.0125348
0.0111004
0.0124285
0.0106138
0.0122424
0.0101586
0.012106
0.00966622
0.00915381
0.0120311
0.0084507
1.0842e-19
0.0084507
2.19551e-18
0.0084507
7.45389e-18
0.0084507
1.15549e-16
0.0084507
6.72964e-16
0.0084507
1.30381e-15
0.0084507
3.28193e-14
0.0084507
1.25867e-13
0.0084507
2.04847e-12
0.0084507
1.71221e-11
0.0084507
5.21776e-11
0.0084507
8.75375e-10
0.0084507
4.54356e-09
0.0084504
5.55574e-08
0.00844955
4.21108e-07
0.0084328
3.39578e-06
0.00832885
3.43371e-05
0.0078586
0.000239057
0.00823566
0.00194119
0.0109107
0.00768342
0.0127404
0.0114889
0.0126502
0.0109471
0.0125455
0.0103464
0.0124015
0.00985385
0.00931019
0.0122936
0.0084507
4.87891e-19
0.0084507
-1.73472e-18
0.0084507
5.55654e-18
0.0084507
3.80826e-17
0.0084507
3.90096e-16
0.0084507
5.51615e-16
0.0084507
1.3928e-14
0.0084507
7.29457e-14
0.0084507
7.23302e-13
0.0084507
9.91051e-12
0.0084507
1.57835e-11
0.0084507
3.90025e-10
0.00845069
1.31531e-09
0.0084506
2.35112e-08
0.00844987
1.62778e-07
0.00844365
1.0348e-06
0.00840028
1.39598e-05
0.00812192
5.1048e-05
0.0076617
0.00112732
0.00934421
0.00480613
0.0127433
0.0106869
0.0129706
0.0111632
0.0129197
0.0106611
0.0127781
0.0100595
0.00950367
0.0126376
0.0084507
5.14996e-19
0.0084507
-1.68051e-18
0.0084507
2.46656e-18
0.0084507
-5.69206e-18
0.0084507
1.00153e-16
0.0084507
2.498e-16
0.0084507
4.39121e-15
0.0084507
2.6065e-14
0.0084507
2.29337e-13
0.0084507
2.58697e-12
0.0084507
1.77278e-11
0.0084507
1.6262e-10
0.0084507
1.71953e-09
0.00845071
6.94333e-09
0.00845023
8.8803e-08
0.00844944
6.42309e-07
0.00842672
4.5294e-06
0.00828202
4.96438e-05
0.0078511
0.00039378
0.00875937
0.00260742
0.0120085
0.00837512
0.0134098
0.0114842
0.0132073
0.0110597
0.013123
0.0102302
0.0097243
0.0129614
0.0084507
2.98156e-19
0.0084507
9.21572e-19
0.0084507
8.94467e-19
0.0084507
3.63208e-18
0.0084507
2.86771e-17
0.0084507
1.68648e-16
0.0084507
1.71751e-15
0.0084507
1.57667e-15
0.0084507
3.17042e-14
0.0084507
1.20717e-12
0.0084507
4.25717e-12
0.0084507
5.98116e-11
0.0084507
7.06098e-10
0.00845069
1.47203e-09
0.00845058
3.26816e-08
0.0084498
2.21096e-07
0.0084431
6.96209e-07
0.00840264
1.76117e-05
0.00816199
8.2991e-05
0.00792691
0.00144006
0.00988649
0.00538828
0.0133196
0.0107411
0.013514
0.0112505
0.0134275
0.0106119
0.0099421
0.0132453
0.0084507
1.89735e-19
0.0084507
1.35525e-19
0.0084507
7.31836e-19
0.0084507
5.25838e-18
0.0084507
4.39102e-18
0.0084507
8.33209e-17
0.0084507
9.23686e-16
0.0084507
1.15734e-14
0.0084507
1.09191e-13
0.0084507
2.63944e-13
0.0084507
5.54093e-12
0.0084507
2.17445e-11
0.0084507
3.34877e-10
0.0084507
2.25205e-09
0.00845073
9.49916e-09
0.00845012
7.3446e-08
0.00844926
8.64313e-07
0.00842687
7.28227e-07
0.00828932
5.99213e-05
0.00793817
0.000526042
0.0091267
0.00293853
0.0125541
0.00841629
0.0140061
0.0114915
0.0137494
0.0110648
0.0101502
0.0136372
0.0084507
4.06576e-19
0.0084507
6.77626e-19
0.0084507
8.13152e-19
0.0084507
2.84603e-18
0.0084507
4.96022e-18
0.0084507
-3.82994e-17
0.0084507
4.23516e-16
0.0084507
4.37091e-15
0.0084507
6.29294e-14
0.0084507
9.83424e-14
0.0084507
2.26401e-12
0.0084507
5.86493e-12
0.0084507
1.26031e-10
0.0084507
1.09313e-09
0.00845069
3.06658e-09
0.00845059
-2.80324e-08
0.00844985
3.52958e-07
0.0084431
-3.84463e-06
0.0084098
2.05914e-05
0.00823024
9.96576e-05
0.008168
0.00156979
0.0102373
0.00540424
0.0138306
0.0105229
0.0141415
0.0112056
0.0105992
0.013978
0.0084507
8.13152e-20
0.0084507
-1.00289e-18
0.0084507
-1.19262e-18
0.0084507
-4.41812e-18
0.0084507
9.54098e-18
0.0084507
-7.04731e-19
0.0084507
1.90955e-16
0.0084507
9.79251e-16
0.0084507
1.13576e-14
0.0084507
7.59616e-14
0.0084507
3.57352e-13
0.0084507
4.73119e-12
0.0084507
3.22156e-11
0.0084507
3.06631e-10
0.0084507
1.9478e-09
0.00845062
-6.36469e-09
0.00845089
1.49889e-07
0.00844647
5.34469e-07
0.00842403
5.3581e-06
0.00832275
5.76716e-05
0.00800393
0.000606852
0.00922552
0.00284303
0.0127799
0.00788868
0.0145362
0.011237
0.0109664
0.0143351
0.0084507
2.43945e-19
0.0084507
-4.60786e-19
0.0084507
-8.94467e-19
0.0084507
-3.82181e-18
0.0084507
9.24282e-18
0.0084507
-1.0056e-17
0.0084507
6.94974e-17
0.0084507
1.52141e-16
0.0084507
3.94761e-15
0.0084507
1.54844e-14
0.0084507
2.04328e-13
0.0084507
9.99641e-13
0.0084507
1.04393e-11
0.0084507
7.213e-11
0.0084507
7.04294e-10
0.00845068
4.23098e-09
0.00845058
6.57183e-08
0.00844979
1.00122e-07
0.00844346
6.64429e-07
0.00841736
9.7647e-06
0.00828423
0.000157717
0.00872842
0.000743861
0.0107895
0.00514363
0.0143809
0.0100982
0.0111058
0.0149486
0.0084507
1.6263e-19
0.0084507
5.42101e-20
0.0084507
2.71051e-19
0.0084507
2.43945e-19
0.0084507
1.46367e-18
0.0084507
-7.31836e-19
0.0084507
1.31188e-17
0.0084507
6.81963e-17
0.0084507
8.22151e-16
0.0084507
5.00538e-15
0.0084507
6.78161e-14
0.0084507
1.59408e-13
0.0084507
3.87667e-12
0.0084507
1.06426e-11
0.0084507
2.52394e-10
0.0084507
7.61983e-10
0.00845071
1.26605e-08
0.00845045
4.19709e-08
0.00844824
8.8323e-07
0.00843509
-5.10132e-07
0.00837217
6.50763e-05
0.00822445
-0.000131853
0.00925186
0.00257756
0.0125255
0.00753784
0.0111473
0.014775
0.0084507
-2.43945e-19
0.0084507
-5.69206e-19
0.0084507
2.71051e-19
0.0084507
-2.98156e-19
0.0084507
7.04731e-19
0.0084507
-1.24683e-18
0.0084507
4.47233e-18
0.0084507
-4.03865e-18
0.0084507
5.48877e-16
0.0084507
1.99501e-15
0.0084507
2.87775e-14
0.0084507
1.22698e-13
0.0084507
4.03792e-13
0.0084507
1.26361e-11
0.0084507
7.28258e-11
0.0084507
4.88723e-10
0.00845069
4.90659e-09
0.00845058
-2.32347e-08
0.00845142
2.39998e-07
0.00844985
1.05882e-06
0.00841489
1.6865e-05
0.00816432
9.79492e-05
0.00793023
0.000888799
0.0101205
0.00417533
0.0089204
0.0142127
0.0084507
-6.50521e-19
0.0084507
-4.87891e-19
0.0084507
-9.48677e-19
0.0084507
-1.6263e-18
0.0084507
-2.08709e-18
0.0084507
-2.08709e-18
0.0084507
-2.87314e-18
0.0084507
-2.24159e-17
0.0084507
2.0486e-16
0.0084507
3.26941e-16
0.0084507
1.13683e-14
0.0084507
5.27278e-14
0.0084507
-1.87602e-13
0.0084507
4.19501e-12
0.0084507
2.11731e-11
0.0084507
7.95109e-11
0.00845071
1.68348e-09
0.00845067
8.01184e-09
0.0084504
9.45163e-08
0.00845025
5.89277e-08
0.0084401
5.56779e-06
0.00841137
2.43676e-05
0.00828761
0.000119205
0.00897836
0.00195914
0.00622517
0.0117817
0.0084507
-4.87891e-19
0.0084507
4.33681e-19
0.0084507
-1.89735e-19
0.0084507
-2.71051e-19
0.0084507
-7.31836e-19
0.0084507
-7.04731e-19
0.0084507
-2.62919e-18
0.0084507
4.11997e-18
0.0084507
3.73779e-17
0.0084507
3.45915e-16
0.0084507
1.88819e-15
0.0084507
1.63521e-14
0.0084507
2.02947e-13
0.0084507
1.39594e-12
0.0084507
6.08724e-12
0.0084507
6.34825e-11
0.0084507
4.08496e-10
0.0084507
-4.90038e-10
0.00845072
1.72201e-08
0.00845009
1.25231e-07
0.00845161
1.46794e-06
0.00842559
7.50787e-06
0.0083201
8.43666e-05
0.00794032
0.000849479
0.00319926
0.0097564
0.0084507
-1.0842e-19
0.0084507
3.79471e-19
0.0084507
9.48677e-19
0.0084507
7.58942e-19
0.0084507
1.21973e-18
0.0084507
1.43657e-18
0.0084507
2.1684e-18
0.0084507
2.6834e-18
0.0084507
1.2387e-17
0.0084507
9.54369e-17
0.0084507
-2.72108e-16
0.0084507
6.09777e-15
0.0084507
4.59433e-14
0.0084507
3.24258e-13
0.0084507
7.07839e-13
0.0084507
7.5735e-12
0.0084507
8.31066e-11
0.0084507
4.2703e-10
0.00845068
3.95972e-09
0.00845053
3.90844e-08
0.00844978
4.36924e-07
0.008443
3.70367e-08
0.00843525
3.35986e-06
0.00838709
0.000183274
0.000949764
0.00906532
0.0084507
4.60786e-19
0.0084507
2.1684e-19
0.0084507
2.98156e-19
0.0084507
9.21572e-19
0.0084507
1.38236e-18
0.0084507
1.81604e-18
0.0084507
2.54788e-18
0.0084507
3.36103e-18
0.0084507
2.46656e-18
0.0084507
1.7808e-17
0.0084507
3.86518e-17
0.0084507
1.09155e-15
0.0084507
-2.97432e-15
0.0084507
1.125e-13
0.0084507
-6.90261e-13
0.0084507
1.6066e-12
0.0084507
1.56641e-11
0.0084507
-4.51588e-10
0.0084507
2.21636e-09
0.00845072
1.22386e-08
0.00845049
1.42525e-07
0.00844819
1.04563e-06
0.00843828
-1.08477e-05
0.00840579
7.17219e-05
-4.98867e-05
0.00832844
0.0084507
1.6263e-19
0.0084507
3.52366e-19
0.0084507
1.6263e-19
0.0084507
-8.13152e-20
0.0084507
1.89735e-19
0.0084507
0
0.0084507
6.23416e-19
0.0084507
1.49078e-18
0.0084507
1.6263e-18
0.0084507
7.45389e-18
0.0084507
3.33934e-17
0.0084507
1.17907e-16
0.0084507
-8.26425e-15
0.0084507
8.90508e-14
0.0084507
-7.07202e-13
0.0084507
2.80021e-14
0.0084507
1.0843e-11
0.0084507
-2.70876e-10
0.0084507
9.8938e-10
0.0084507
2.27571e-09
0.00845058
5.05158e-08
0.00845146
2.6042e-07
0.00844069
1.30006e-06
0.00844134
1.67595e-05
9.38137e-05
0.00829822
0.0084507
-2.1684e-19
0.0084507
-8.13152e-20
0.0084507
5.42101e-20
0.0084507
-1.35525e-19
0.0084507
6.23416e-19
0.0084507
3.25261e-19
0.0084507
2.98156e-19
0.0084507
9.21572e-19
0.0084507
2.98156e-19
0.0084507
3.03577e-18
0.0084507
1.23057e-17
0.0084507
2.10606e-17
0.0084507
-5.81241e-16
0.0084507
1.42269e-15
0.0084507
-2.0216e-14
0.0084507
-9.27024e-13
0.0084507
1.44592e-12
0.0084507
5.15231e-13
0.0084507
1.0711e-10
0.0084507
1.33508e-09
0.00845072
1.64417e-08
0.00845054
9.19143e-08
0.00845055
2.2358e-07
0.00844319
7.17747e-06
-1.86195e-06
0.00844771
0.0084507
2.98156e-19
0.0084507
6.77626e-19
0.0084507
5.14996e-19
0.0084507
1.38236e-18
0.0084507
9.48677e-19
0.0084507
6.77626e-19
0.0084507
-2.71051e-20
0.0084507
-6.23416e-19
0.0084507
-1.5992e-18
0.0084507
-2.62919e-18
0.0084507
-1.27394e-18
0.0084507
-1.06794e-17
0.0084507
-2.97505e-16
0.0084507
-2.02627e-15
0.0084507
-2.67107e-14
0.0084507
-3.33291e-14
0.0084507
7.23389e-13
0.0084507
5.63644e-12
0.0084507
5.82592e-11
0.0084507
-1.88304e-10
0.00845071
3.17871e-09
0.00845069
5.09516e-10
0.00845048
9.9486e-08
0.00845055
3.05914e-06
-1.4858e-05
0.00844242
0.0084507
8.13152e-20
0.0084507
1.89735e-19
0.0084507
5.42101e-20
0.0084507
1.6263e-19
0.0084507
-8.94467e-19
0.0084507
-9.48677e-19
0.0084507
-1.43657e-18
0.0084507
-1.30104e-18
0.0084507
-1.76183e-18
0.0084507
-1.27394e-18
0.0084507
-2.1684e-19
0.0084507
8.18573e-18
0.0084507
5.72188e-17
0.0084507
-3.76869e-16
0.0084507
9.04685e-16
0.0084507
-4.31994e-14
0.0084507
4.80381e-14
0.0084507
2.1004e-12
0.0084507
1.80743e-11
0.0084507
9.30998e-11
0.0084507
1.10594e-09
0.00845067
6.99315e-09
0.00845067
2.23887e-08
0.00845049
3.60102e-07
1.14592e-06
0.00844074
0.0084507
-3.79471e-19
0.0084507
-6.50521e-19
0.0084507
-5.42101e-19
0.0084507
-2.1684e-19
0.0084507
-2.71051e-20
0.0084507
-2.71051e-20
0.0084507
5.42101e-20
0.0084507
-1.0842e-19
0.0084507
-7.86047e-19
0.0084507
-1.89735e-19
0.0084507
2.98156e-19
0.0084507
7.61652e-18
0.0084507
2.30393e-17
0.0084507
3.53613e-16
0.0084507
1.99336e-15
0.0084507
5.53816e-15
0.0084507
3.00796e-14
0.0084507
3.60351e-13
0.0084507
5.93083e-12
0.0084507
1.34871e-12
0.0084507
-2.30921e-11
0.0084507
1.33116e-09
0.00845067
1.22561e-08
0.00845059
1.35397e-07
7.02457e-08
0.00845005
0.0084507
4.06576e-19
0.0084507
4.60786e-19
0.0084507
5.96311e-19
0.0084507
7.58942e-19
0.0084507
8.67362e-19
0.0084507
5.69206e-19
0.0084507
1.11131e-18
0.0084507
8.40257e-19
0.0084507
4.60786e-19
0.0084507
5.42101e-19
0.0084507
8.13152e-19
0.0084507
3.38813e-18
0.0084507
1.17636e-17
0.0084507
1.57209e-16
0.0084507
7.85261e-16
0.0084507
1.69545e-15
0.0084507
3.17038e-14
0.0084507
1.5159e-14
0.0084507
1.78021e-12
0.0084507
1.07494e-11
0.0084507
-2.16019e-10
0.0084507
4.4388e-10
0.00845071
1.4404e-09
0.00845069
2.44232e-08
8.48773e-08
0.00845047
0.0084507
1.0842e-19
0.0084507
-1.0842e-19
0.0084507
-5.14996e-19
0.0084507
-1.32815e-18
0.0084507
-9.75782e-19
0.0084507
-9.75782e-19
0.0084507
-3.79471e-19
0.0084507
2.71051e-19
0.0084507
5.42101e-20
0.0084507
1.11131e-18
0.0084507
1.21973e-18
0.0084507
1.65341e-18
0.0084507
5.85469e-18
0.0084507
3.08998e-17
0.0084507
1.57182e-16
0.0084507
1.46356e-15
0.0084507
1.1885e-15
0.0084507
5.05297e-14
0.0084507
3.50919e-13
0.0084507
8.75397e-13
0.0084507
2.92204e-12
0.0084507
1.06569e-10
0.0084507
1.00032e-09
0.00845069
1.08873e-08
8.20751e-08
0.00844993
0.0084507
-4.06576e-19
0.0084507
-9.75782e-19
0.0084507
-8.40257e-19
0.0084507
-1.32815e-18
0.0084507
-1.43657e-18
0.0084507
-1.38236e-18
0.0084507
-1.32815e-18
0.0084507
-1.89735e-18
0.0084507
-2.71051e-18
0.0084507
-1.89735e-18
0.0084507
-2.27682e-18
0.0084507
-2.57498e-18
0.0084507
-9.21572e-19
0.0084507
6.50521e-19
0.0084507
3.11437e-17
0.0084507
2.90891e-16
0.0084507
-1.26483e-15
0.0084507
1.47876e-14
0.0084507
8.88034e-14
0.0084507
5.72923e-13
0.0084507
1.4545e-12
0.0084507
4.80531e-11
0.0084507
3.21286e-10
0.0084507
3.41317e-09
3.45273e-08
0.0084506
0.0084507
-1.35525e-19
0.0084507
-2.71051e-19
0.0084507
-1.6263e-19
0.0084507
-2.71051e-20
0.0084507
1.0842e-19
0.0084507
-3.79471e-19
0.0084507
-1.89735e-19
0.0084507
-1.02999e-18
0.0084507
-1.30104e-18
0.0084507
-1.92446e-18
0.0084507
-3.00866e-18
0.0084507
-3.79471e-18
0.0084507
-3.65918e-18
0.0084507
-2.1413e-18
0.0084507
5.71917e-18
0.0084507
2.39067e-16
0.0084507
2.14374e-15
0.0084507
1.32452e-14
0.0084507
2.9868e-14
0.0084507
4.99639e-13
0.0084507
3.14623e-12
0.0084507
1.44858e-11
0.0084507
3.52117e-11
0.0084507
6.03989e-10
2.63122e-09
0.00845062
0.0084507
2.43945e-19
0.0084507
1.89735e-19
0.0084507
1.6263e-19
0.0084507
1.35525e-19
0.0084507
1.89735e-19
0.0084507
-5.96311e-19
0.0084507
-9.48677e-19
0.0084507
-1.24683e-18
0.0084507
-1.70762e-18
0.0084507
-2.05998e-18
0.0084507
-2.52077e-18
0.0084507
-3.06287e-18
0.0084507
-2.84603e-18
0.0084507
-1.00289e-18
0.0084507
2.12233e-17
0.0084507
1.82173e-16
0.0084507
6.95353e-16
0.0084507
6.63247e-15
0.0084507
5.92441e-15
0.0084507
1.102e-13
0.0084507
1.52923e-12
0.0084507
5.31078e-12
0.0084507
1.46595e-11
0.0084507
1.94404e-10
8.63297e-10
0.00845059
0.0084507
1.89735e-19
0.0084507
5.96311e-19
0.0084507
5.42101e-19
0.0084507
5.42101e-19
0.0084507
7.31836e-19
0.0084507
2.71051e-19
0.0084507
-3.79471e-19
0.0084507
-5.69206e-19
0.0084507
-4.87891e-19
0.0084507
-8.94467e-19
0.0084507
-1.02999e-18
0.0084507
-9.48677e-19
0.0084507
-1.19262e-18
0.0084507
-1.43657e-18
0.0084507
3.10082e-17
0.0084507
1.10372e-16
0.0084507
-2.67229e-16
0.0084507
2.76266e-15
0.0084507
-8.85433e-15
0.0084507
-1.33688e-13
0.0084507
5.93302e-13
0.0084507
1.60013e-12
0.0084507
4.58649e-12
0.0084507
3.32984e-11
1.83914e-10
0.00845059
0.0084507
7.52316e-36
0.0084507
2.43945e-19
0.0084507
1.89735e-19
0.0084507
5.42101e-20
0.0084507
1.0842e-19
0.0084507
2.71051e-20
0.0084507
5.42101e-19
0.0084507
8.40257e-19
0.0084507
9.21572e-19
0.0084507
-1.35525e-19
0.0084507
-5.42101e-19
0.0084507
-1.16552e-18
0.0084507
-1.00289e-18
0.0084507
-1.27394e-18
0.0084507
6.47811e-18
0.0084507
5.92245e-17
0.0084507
-6.60279e-17
0.0084507
1.32883e-15
0.0084507
-1.09087e-15
0.0084507
-5.67614e-14
0.0084507
2.65291e-13
0.0084507
7.67562e-13
0.0084507
3.45321e-12
0.0084507
2.13213e-11
1.93473e-10
0.00845059
0.0084507
-3.52366e-19
0.0084507
-7.58942e-19
0.0084507
-1.68051e-18
0.0084507
-2.03288e-18
0.0084507
-2.41235e-18
0.0084507
-2.62919e-18
0.0084507
-2.22261e-18
0.0084507
-2.19551e-18
0.0084507
-2.30393e-18
0.0084507
-2.38524e-18
0.0084507
-1.57209e-18
0.0084507
-1.49078e-18
0.0084507
-1.35525e-18
0.0084507
-1.30104e-18
0.0084507
-1.73472e-18
0.0084507
1.27665e-17
0.0084507
1.68051e-17
0.0084507
2.44623e-16
0.0084507
9.75159e-16
0.0084507
-7.03325e-15
0.0084507
6.90016e-14
0.0084507
1.85428e-13
0.0084507
1.04068e-12
0.0084507
5.05052e-12
5.4262e-11
0.00845059
0.0084507
0.0084507
0.0084507
0.0084507
0.0084507
0.0084507
0.0084507
0.0084507
0.0084507
0.0084507
0.0084507
0.0084507
0.0084507
0.0084507
0.0084507
0.0084507
0.0084507
0.0084507
0.0084507
0.0084507
0.0084507
0.0084507
0.0084507
0.0084507
0.00845059
0.00272978
0.00439893
-0.000244834
0.00298892
-0.00158404
0.00134669
-0.00151855
-6.37949e-05
-0.00127742
-0.000217074
-0.00172282
0.000514664
-0.00262865
0.00091246
-0.00323659
0.000514704
-0.00354501
0.000310583
-0.00361788
7.28661e-05
-0.00360427
-6.64806e-06
-0.00359115
-2.30422e-06
-0.00355775
1.57005e-05
-0.00355496
1.04144e-05
-0.00363689
3.90417e-05
-0.00371588
5.55142e-05
-0.00375542
3.83039e-05
-0.00377093
1.57151e-05
-0.00376778
2.42716e-06
-0.00376341
-1.19283e-06
-0.00376285
2.09699e-06
-0.0037653
1.5365e-06
-0.00375739
-5.47136e-06
-0.00375792
-2.38251e-06
-0.00376007
-3.8567e-06
-0.00376382
-1.84985e-06
-0.00377349
-1.5075e-06
-0.00378263
-7.84558e-06
-0.00378847
-9.05067e-06
-0.00379195
-8.57576e-06
-0.00379337
-1.2946e-05
-0.00376417
-3.18674e-05
-0.00370978
-4.5633e-05
-0.00365232
-6.01313e-05
-0.00357281
-8.44493e-05
-0.00345203
-0.000115602
-0.00329663
-0.000134041
-0.00311981
-0.000171928
-0.0029697
-0.000161799
-0.00274488
-0.000218293
-0.00248721
-0.000251151
-0.00221337
-0.000258786
-0.00191306
-0.000282925
-0.00164466
-0.000261473
-0.00133224
-0.000305279
-0.000937316
-0.000385632
-0.000551588
-0.000382667
-0.000135031
-0.000409679
0.000280319
-0.000411686
0.000654649
-0.000369415
0.00101165
-0.000352591
0.00134914
-0.0003337
0.0016713
-0.000320469
0.00197132
-0.000298656
0.00225768
-0.000285056
0.00252572
-0.000265011
0.00277324
-0.000246211
0.00300034
-0.000225639
0.00321208
-0.000208946
0.00341076
-0.000194913
0.0035933
-0.000180142
0.0037602
-0.000165068
0.00391448
-0.000152288
0.00405812
-0.000140848
0.00419169
-0.000130787
0.00431579
-0.00012087
0.00443104
-0.000111939
0.00453613
-0.000102444
0.00463264
-9.41477e-05
0.00472119
-8.62217e-05
0.00480325
-7.97427e-05
0.00487905
-7.36037e-05
0.0049498
-6.86817e-05
0.00501527
-6.37867e-05
0.00507612
-5.9534e-05