/*--------------------------------*- C++ -*----------------------------------*\
| =========                 |                                                 |
| \\      /  F ield         | OpenFOAM: The Open Source CFD Toolbox           |
|  \\    /   O peration     | Version:  v2106                                 |
|   \\  /    A nd           | Website:  www.openfoam.com                      |
|    \\/     M anipulation  |                                                 |
\*---------------------------------------------------------------------------*/
FoamFile
{
    version     2.0;
    format      ascii;
    arch        "LSB;label=32;scalar=64";
    class       volScalarField;
    location    "6";
    object      psi;
}
// * * * * * * * * * * * * * * * * * * * * * * * * * * * * * * * * * * * * * //

dimensions      [0 -2 2 0 0 0 0];

internalField   nonuniform List<scalar> 
5250
(
1.40845
1.40845
1.40845
1.40845
1.40845
1.40845
1.40845
1.40845
1.40843
1.40823
1.40642
1.38975
1.27289
0.944707
0.510112
0.526843
0.55669
0.559435
0.549947
0.551807
0.550941
0.549017
0.549137
0.549884
0.551323
1.40845
1.40845
1.40845
1.40845
1.40845
1.40845
1.40845
1.40845
1.40843
1.40823
1.40647
1.39026
1.27596
0.950205
0.512935
0.526669
0.557697
0.560958
0.551357
0.553037
0.552081
0.549957
0.550037
0.550766
0.552178
1.40845
1.40845
1.40845
1.40845
1.40845
1.40845
1.40845
1.40845
1.40843
1.40824
1.40658
1.39123
1.28176
0.962654
0.518824
0.525403
0.559511
0.564132
0.554086
0.555658
0.55453
0.552144
0.552221
0.55298
0.554469
1.40845
1.40845
1.40845
1.40845
1.40845
1.40845
1.40845
1.40845
1.40843
1.40824
1.40663
1.3923
1.29316
0.982438
0.535598
0.522446
0.56465
0.569682
0.558409
0.559698
0.558167
0.555047
0.554977
0.555725
0.557202
1.40845
1.40845
1.40845
1.40845
1.40845
1.40845
1.40845
1.40845
1.40843
1.40828
1.40694
1.39515
1.30892
1.01033
0.577357
0.518887
0.577958
0.580343
0.566428
0.565945
0.56329
0.55898
0.558492
0.559136
0.560585
1.40845
1.40845
1.40845
1.40845
1.40845
1.40845
1.40845
1.40845
1.40844
1.40831
1.40721
1.39779
1.32619
1.05064
0.656164
0.513264
0.598025
0.596951
0.579382
0.575441
0.569964
0.56347
0.56263
0.56328
0.565364
1.40845
1.40845
1.40845
1.40845
1.40845
1.40845
1.40845
1.40845
1.40844
1.40834
1.40747
1.40017
1.34309
1.0941
0.718354
0.49433
0.620766
0.623495
0.60496
0.592463
0.57995
0.570411
0.568174
0.56895
0.571066
1.40845
1.40845
1.40845
1.40845
1.40845
1.40845
1.40845
1.40845
1.40844
1.40838
1.40778
1.40271
1.35782
1.13822
0.76008
0.467742
0.60171
0.622598
0.614756
0.609707
0.596591
0.580542
0.575212
0.575247
0.5818
1.40845
1.40845
1.40845
1.40845
1.40845
1.40845
1.40845
1.40845
1.40844
1.4084
1.40799
1.40438
1.36905
1.17772
0.80725
0.452554
0.574982
0.611946
0.611073
0.615724
0.611475
0.596887
0.587269
0.58446
0.597519
1.40845
1.40845
1.40845
1.40845
1.40845
1.40845
1.40845
1.40845
1.40845
1.40841
1.40808
1.40513
1.37842
1.21739
0.857537
0.460464
0.559294
0.592564
0.601462
0.615096
0.619577
0.612271
0.602251
0.597747
0.637373
1.40845
1.40845
1.40845
1.40845
1.40845
1.40845
1.40845
1.40845
1.40845
1.40842
1.40817
1.406
1.38609
1.25434
0.916125
0.485162
0.556217
0.574066
0.586655
0.606016
0.621941
0.630379
0.628539
0.636729
0.716972
1.40845
1.40845
1.40845
1.40845
1.40845
1.40845
1.40845
1.40845
1.40845
1.40843
1.40824
1.40664
1.39246
1.29473
0.982868
0.521811
0.544616
0.583065
0.590516
0.600232
0.617198
0.637917
0.642443
0.651318
0.769106
1.40845
1.40845
1.40845
1.40845
1.40845
1.40845
1.40845
1.40845
1.40845
1.40844
1.40834
1.40737
1.39885
1.33403
1.06029
0.614205
0.529667
0.602013
0.603468
0.603569
0.611549
0.631366
0.65723
0.667553
0.768222
1.40845
1.40845
1.40845
1.40845
1.40845
1.40845
1.40845
1.40845
1.40845
1.40844
1.40838
1.40781
1.40283
1.36043
1.14687
0.763664
0.493177
0.615661
0.617085
0.611761
0.614934
0.629729
0.65458
0.680893
0.764351
1.40845
1.40845
1.40845
1.40845
1.40845
1.40845
1.40845
1.40845
1.40845
1.40845
1.40841
1.40814
1.40548
1.37672
1.20815
0.84784
0.481932
0.615148
0.625196
0.620328
0.621425
0.632988
0.654094
0.682274
0.749577
1.40845
1.40845
1.40845
1.40845
1.40845
1.40845
1.40845
1.40845
1.40845
1.40845
1.40843
1.40821
1.40634
1.38892
1.26992
0.937257
0.496476
0.592006
0.636102
0.636156
0.633754
0.639627
0.654431
0.679618
0.728861
1.40845
1.40845
1.40845
1.40845
1.40845
1.40845
1.40845
1.40845
1.40845
1.40845
1.40843
1.4083
1.40715
1.3971
1.32203
1.03728
0.541827
0.554696
0.634454
0.655586
0.650686
0.649394
0.657586
0.677109
0.714292
1.40845
1.40845
1.40845
1.40845
1.40845
1.40845
1.40845
1.40845
1.40845
1.40845
1.40844
1.40839
1.40787
1.40334
1.36407
1.15636
0.750672
0.499386
0.627463
0.654728
0.655658
0.657874
0.664907
0.679799
0.708146
1.40845
1.40845
1.40845
1.40845
1.40845
1.40845
1.40845
1.40845
1.40845
1.40845
1.40845
1.40841
1.40811
1.40547
1.38218
1.23569
0.887327
0.504006
0.611901
0.647728
0.666606
0.668679
0.674259
0.685605
0.708248
1.40845
1.40845
1.40845
1.40845
1.40845
1.40845
1.40845
1.40845
1.40845
1.40845
1.40845
1.40843
1.40827
1.4069
1.39535
1.3111
1.01095
0.535185
0.572644
0.652097
0.683688
0.684045
0.686254
0.693487
0.710284
1.40845
1.40845
1.40845
1.40845
1.40845
1.40845
1.40845
1.40845
1.40845
1.40845
1.40845
1.40844
1.40838
1.40783
1.40311
1.36258
1.14982
0.734156
0.512167
0.644479
0.665935
0.686617
0.693897
0.702623
0.715972
1.40845
1.40845
1.40845
1.40845
1.40845
1.40845
1.40845
1.40845
1.40845
1.40845
1.40845
1.40845
1.40841
1.4081
1.4055
1.38417
1.25003
0.902834
0.521091
0.614688
0.663257
0.692797
0.703022
0.71238
0.724198
1.40845
1.40845
1.40845
1.40845
1.40845
1.40845
1.40845
1.40845
1.40845
1.40845
1.40845
1.40845
1.40844
1.40833
1.40738
1.39931
1.33377
1.05219
0.562151
0.568029
0.660545
0.69195
0.706854
0.717602
0.729668
1.40845
1.40845
1.40845
1.40845
1.40845
1.40845
1.40845
1.40845
1.40845
1.40845
1.40845
1.40845
1.40844
1.40839
1.40791
1.40414
1.37406
1.20475
0.8001
0.520611
0.640366
0.677156
0.709682
0.722728
0.735715
1.40845
1.40845
1.40845
1.40845
1.40845
1.40845
1.40845
1.40845
1.40845
1.40845
1.40845
1.40845
1.40845
1.40843
1.40829
1.40698
1.39592
1.31106
0.988904
0.550734
0.590933
0.676738
0.705959
0.722232
0.736602
1.40845
1.40845
1.40845
1.40845
1.40845
1.40845
1.40845
1.40845
1.40845
1.40845
1.40845
1.40845
1.40845
1.40844
1.40837
1.40779
1.40335
1.36851
1.17992
0.759821
0.53107
0.657429
0.688454
0.723114
0.735971
1.40845
1.40845
1.40845
1.40845
1.40845
1.40845
1.40845
1.40845
1.40845
1.40845
1.40845
1.40845
1.40845
1.40845
1.40843
1.40827
1.40679
1.39399
1.30053
0.965946
0.556968
0.605323
0.691765
0.719325
0.734358
1.40845
1.40845
1.40845
1.40845
1.40845
1.40845
1.40845
1.40845
1.40845
1.40845
1.40845
1.40845
1.40845
1.40845
1.40844
1.40836
1.40774
1.40315
1.36671
1.1709
0.754901
0.541945
0.666783
0.703365
0.734236
1.40845
1.40845
1.40845
1.40845
1.40845
1.40845
1.40845
1.40845
1.40845
1.40845
1.40845
1.40845
1.40845
1.40845
1.40845
1.40841
1.40847
1.40732
1.39569
1.30728
0.974877
0.563787
0.606808
0.698796
0.725281
1.40845
1.40845
1.40845
1.40845
1.40845
1.40845
1.40845
1.40845
1.40845
1.40845
1.40845
1.40845
1.40845
1.40845
1.40845
1.40844
1.40837
1.40777
1.40319
1.36797
1.17054
0.754124
0.55298
0.667038
0.710052
1.40845
1.40845
1.40845
1.40845
1.40845
1.40845
1.40845
1.40845
1.40845
1.40845
1.40845
1.40845
1.40845
1.40845
1.40845
1.40845
1.40843
1.4083
1.40714
1.39758
1.32425
1.04215
0.588247
0.615928
0.71849
1.40845
1.40845
1.40845
1.40845
1.40845
1.40845
1.40845
1.40845
1.40845
1.40845
1.40845
1.40845
1.40845
1.40845
1.40845
1.40845
1.40844
1.40835
1.40853
1.40599
1.38973
1.28478
0.810269
0.550367
0.65587
1.40845
1.40845
1.40845
1.40845
1.40845
1.40845
1.40845
1.40845
1.40845
1.40845
1.40845
1.40845
1.40845
1.40845
1.40845
1.40845
1.40845
1.40844
1.40833
1.40738
1.3999
1.34512
1.08902
0.613515
0.592249
1.40845
1.40845
1.40845
1.40845
1.40845
1.40845
1.40845
1.40845
1.40845
1.40845
1.40845
1.40845
1.40845
1.40845
1.40845
1.40845
1.40845
1.40845
1.40842
1.40822
1.4063
1.39342
1.29281
0.896467
0.573263
1.40845
1.40845
1.40845
1.40845
1.40845
1.40845
1.40845
1.40845
1.40845
1.40845
1.40845
1.40845
1.40845
1.40845
1.40845
1.40845
1.40845
1.40845
1.40844
1.40833
1.40752
1.4018
1.35905
1.14134
0.718138
1.40845
1.40845
1.40845
1.40845
1.40845
1.40845
1.40845
1.40845
1.40845
1.40845
1.40845
1.40845
1.40845
1.40845
1.40845
1.40845
1.40845
1.40845
1.40845
1.40843
1.40829
1.40723
1.39817
1.32702
1.04457
1.40845
1.40845
1.40845
1.40845
1.40845
1.40845
1.40845
1.40845
1.40845
1.40845
1.40845
1.40845
1.40845
1.40845
1.40845
1.40845
1.40845
1.40845
1.40845
1.40844
1.40832
1.40839
1.40588
1.39423
1.30969
1.40845
1.40845
1.40845
1.40845
1.40845
1.40845
1.40845
1.40845
1.40845
1.40845
1.40845
1.40845
1.40845
1.40845
1.40845
1.40845
1.40845
1.40845
1.40845
1.40845
1.40843
1.40833
1.40753
1.40128
1.35607
1.40845
1.40845
1.40845
1.40845
1.40845
1.40845
1.40845
1.40845
1.40845
1.40845
1.40845
1.40845
1.40845
1.40845
1.40845
1.40845
1.40845
1.40845
1.40845
1.40845
1.40844
1.40841
1.40819
1.40667
1.39786
1.40845
1.40845
1.40845
1.40845
1.40845
1.40845
1.40845
1.40845
1.40845
1.40845
1.40845
1.40845
1.40845
1.40845
1.40845
1.40845
1.40845
1.40845
1.40845
1.40845
1.40845
1.40844
1.40835
1.40786
1.40436
1.40845
1.40845
1.40845
1.40845
1.40845
1.40845
1.40845
1.40845
1.40845
1.40845
1.40845
1.40845
1.40845
1.40845
1.40845
1.40845
1.40845
1.40845
1.40845
1.40845
1.40845
1.40845
1.40844
1.40833
1.40764
1.40845
1.40845
1.40845
1.40845
1.40845
1.40845
1.40845
1.40845
1.40845
1.40845
1.40845
1.40845
1.40845
1.40845
1.40845
1.40845
1.40845
1.40845
1.40845
1.40845
1.40845
1.40845
1.40845
1.40842
1.40823
1.40845
1.40845
1.40845
1.40845
1.40845
1.40845
1.40845
1.40845
1.40845
1.40845
1.40845
1.40845
1.40845
1.40845
1.40845
1.40845
1.40845
1.40845
1.40845
1.40845
1.40845
1.40845
1.40845
1.40842
1.40808
1.40845
1.40845
1.40845
1.40845
1.40845
1.40845
1.40845
1.40845
1.40845
1.40845
1.40845
1.40845
1.40845
1.40845
1.40845
1.40845
1.40845
1.40845
1.40845
1.40845
1.40845
1.40845
1.40845
1.40844
1.4084
1.40845
1.40845
1.40845
1.40845
1.40845
1.40845
1.40845
1.40845
1.40845
1.40845
1.40845
1.40845
1.40845
1.40845
1.40845
1.40845
1.40845
1.40845
1.40845
1.40845
1.40845
1.40845
1.40845
1.40845
1.40841
1.40845
1.40845
1.40845
1.40845
1.40845
1.40845
1.40845
1.40845
1.40845
1.40845
1.40845
1.40845
1.40845
1.40845
1.40845
1.40845
1.40845
1.40845
1.40845
1.40845
1.40845
1.40845
1.40845
1.40845
1.40841
1.40845
1.40845
1.40845
1.40845
1.40845
1.40845
1.40845
1.40845
1.40845
1.40845
1.40845
1.40845
1.40845
1.40845
1.40845
1.40845
1.40845
1.40845
1.40845
1.40845
1.40845
1.40845
1.40845
1.40845
1.40841
1.40845
1.40845
1.40845
1.40845
1.40845
1.40845
1.40845
1.40845
1.40845
1.40845
1.40845
1.40845
1.40845
1.40845
1.40845
1.40845
1.40845
1.40845
1.40845
1.40845
1.40845
1.40845
1.40845
1.40845
1.40841
1.40845
1.40845
1.40845
1.40845
1.40845
1.40845
1.40845
1.40845
1.40845
1.40845
1.40845
1.40845
1.40845
1.40845
1.40845
1.40845
1.40845
1.40845
1.40845
1.40845
1.40845
1.40845
1.40845
1.40845
1.40841
1.40845
1.40845
1.40845
1.40845
1.40845
1.40845
1.40845
1.40845
1.40845
1.40845
1.40845
1.40845
1.40845
1.40845
1.40845
1.40845
1.40845
1.40845
1.40845
1.40845
1.40845
1.40845
1.40845
1.40845
1.40841
0.642844
0.5716
0.537706
0.539819
0.542347
0.524309
0.516103
0.543968
0.569353
0.573346
0.573014
0.570913
0.569456
0.565121
0.574818
0.587727
0.593787
0.594976
0.595063
0.593984
0.59375
0.593768
0.594281
0.594311
0.595574
0.59658
0.59733
0.598266
0.598889
0.598221
0.595591
0.593096
0.585696
0.579105
0.573609
0.567332
0.55836
0.549713
0.54446
0.541341
0.533018
0.526737
0.520598
0.515761
0.513353
0.511515
0.508754
0.507569
0.504017
0.505209
0.506709
0.508566
0.510763
0.512655
0.514723
0.517172
0.519605
0.522105
0.524528
0.527045
0.529508
0.531933
0.534353
0.53687
0.539302
0.541733
0.544216
0.546592
0.54893
0.551193
0.553478
0.555701
0.557953
0.560134
0.562338
0.564448
0.566585
0.568617
0.5707
0.572734
0.574804
0.57691
0.579041
0.581216
0.583427
0.585646
0.587902
0.590112
0.592381
0.59462
0.596908
0.599198
0.601519
0.603895
0.606301
0.608839
0.61144
0.615194
0.616322
0.614756
0.643564
0.581249
0.556778
0.532093
0.531038
0.50999
0.491355
0.505825
0.532988
0.53389
0.528509
0.522385
0.519165
0.517171
0.528445
0.534418
0.538228
0.538292
0.537831
0.537702
0.537887
0.538398
0.538725
0.537842
0.539974
0.540772
0.541228
0.542593
0.54342
0.542493
0.540096
0.539222
0.533645
0.529089
0.525738
0.520317
0.513312
0.508204
0.504989
0.502967
0.501284
0.496545
0.490216
0.49201
0.49381
0.494299
0.497277
0.500017
0.503763
0.508448
0.513256
0.518131
0.523451
0.527774
0.532161
0.53684
0.541608
0.546216
0.54998
0.553716
0.557639
0.561348
0.564661
0.568021
0.571522
0.574798
0.578117
0.581235
0.584286
0.587136
0.589998
0.592724
0.595489
0.598108
0.600755
0.603157
0.605535
0.607587
0.60966
0.611581
0.613525
0.615499
0.617501
0.619543
0.621646
0.623623
0.625618
0.627434
0.629279
0.631047
0.632844
0.634654
0.636505
0.638425
0.640409
0.642527
0.644815
0.64847
0.64901
0.646707
0.720313
0.652281
0.601409
0.55689
0.548689
0.544489
0.535985
0.507996
0.501895
0.496953
0.504609
0.517419
0.51282
0.504706
0.496788
0.511449
0.518923
0.519895
0.518964
0.517293
0.516939
0.517437
0.518159
0.51925
0.519682
0.519692
0.520149
0.520587
0.520805
0.520572
0.517949
0.516016
0.510914
0.507163
0.504345
0.503065
0.488946
0.489459
0.490366
0.488957
0.490385
0.493593
0.499819
0.509006
0.518764
0.526559
0.535375
0.542869
0.552003
0.559517
0.567076
0.574349
0.580501
0.585181
0.589911
0.595388
0.60016
0.605255
0.609459
0.613454
0.61774
0.62198
0.625586
0.629041
0.632577
0.63602
0.639363
0.642477
0.645348
0.648173
0.651042
0.653803
0.656547
0.659234
0.661948
0.664622
0.667367
0.669854
0.672385
0.674568
0.676635
0.678647
0.680638
0.682645
0.684683
0.686736
0.688835
0.69097
0.693182
0.695431
0.697724
0.700004
0.702296
0.704524
0.706776
0.70907
0.711535
0.715372
0.716154
0.713188
0.784188
0.745358
0.691635
0.624497
0.583149
0.580536
0.588467
0.562987
0.537842
0.519969
0.51049
0.513354
0.518146
0.523437
0.51085
0.506099
0.506408
0.507669
0.517134
0.5209
0.516406
0.516552
0.51719
0.517042
0.519525
0.521667
0.522258
0.52233
0.520599
0.517297
0.51256
0.505256
0.498889
0.498429
0.495646
0.496521
0.500327
0.509584
0.521318
0.532421
0.541126
0.551573
0.560994
0.573338
0.582704
0.589811
0.596373
0.604747
0.610174
0.616235
0.624567
0.629256
0.634126
0.638027
0.642199
0.647359
0.651297
0.655345
0.65912
0.662259
0.665715
0.6695
0.673346
0.676824
0.680125
0.683092
0.685994
0.688868
0.691772
0.694544
0.69719
0.699704
0.702207
0.7047
0.707219
0.709744
0.712339
0.714791
0.717275
0.719656
0.721976
0.724212
0.726347
0.728431
0.73053
0.732528
0.734497
0.736452
0.738452
0.740518
0.742671
0.744923
0.747295
0.749778
0.752385
0.75509
0.757997
0.762064
0.763953
0.760733
0.796543
0.786378
0.755375
0.705607
0.647767
0.628288
0.651365
0.631978
0.602039
0.574506
0.54679
0.533448
0.533562
0.537341
0.536505
0.5301
0.521696
0.515639
0.514771
0.516046
0.51752
0.519246
0.519567
0.518685
0.518194
0.518431
0.520042
0.520176
0.518809
0.515246
0.509453
0.508557
0.51216
0.519187
0.527026
0.53815
0.549715
0.565059
0.5814
0.590737
0.601256
0.613161
0.623222
0.635147
0.641325
0.647342
0.651947
0.657966
0.661527
0.665751
0.669858
0.674718
0.679303
0.682078
0.68517
0.688926
0.692278
0.694617
0.69748
0.70035
0.703582
0.707326
0.710791
0.713526
0.71608
0.718683
0.72145
0.72451
0.727124
0.729443
0.731792
0.734223
0.736793
0.739419
0.742061
0.744452
0.746513
0.748577
0.750744
0.753034
0.755449
0.757935
0.760296
0.76256
0.764667
0.766685
0.768675
0.770655
0.772667
0.774738
0.776879
0.779092
0.781398
0.7838
0.786338
0.789035
0.792024
0.795982
0.798899
0.795468
0.788693
0.804895
0.793914
0.763632
0.730461
0.693671
0.703867
0.687375
0.656197
0.62418
0.601938
0.579419
0.569754
0.570275
0.566564
0.558742
0.549131
0.539995
0.533134
0.528449
0.525915
0.524819
0.524681
0.525372
0.52488
0.52432
0.523559
0.521145
0.521152
0.521612
0.52464
0.529447
0.535258
0.547229
0.562773
0.585076
0.60305
0.626278
0.644064
0.655843
0.670874
0.679
0.68569
0.689739
0.691903
0.69554
0.696419
0.698122
0.701554
0.704088
0.705608
0.711107
0.713283
0.715652
0.718051
0.719941
0.72227
0.724242
0.726646
0.729566
0.732844
0.735616
0.737699
0.739573
0.741725
0.744444
0.747637
0.750319
0.752393
0.7545
0.756778
0.759285
0.761897
0.764355
0.766631
0.768779
0.770931
0.773125
0.775384
0.777693
0.779966
0.78218
0.784403
0.786645
0.788854
0.791095
0.793396
0.795706
0.79791
0.80009
0.802268
0.804463
0.806699
0.808999
0.811411
0.813992
0.816897
0.820541
0.824129
0.820573
0.769526
0.799053
0.805553
0.796397
0.78501
0.765771
0.766483
0.761523
0.736127
0.700259
0.672718
0.648407
0.626307
0.615463
0.610072
0.597926
0.587175
0.575536
0.566749
0.558117
0.550135
0.545325
0.540911
0.537379
0.534343
0.533446
0.530236
0.53238
0.53274
0.533069
0.541926
0.559729
0.586342
0.617287
0.642054
0.669467
0.686333
0.7069
0.711819
0.718287
0.726766
0.73072
0.731512
0.731313
0.730631
0.733267
0.733554
0.734359
0.732916
0.732697
0.732961
0.734879
0.737947
0.739861
0.741105
0.742028
0.742976
0.744576
0.746156
0.748468
0.751738
0.753113
0.754593
0.756589
0.759188
0.762253
0.764894
0.76685
0.768873
0.770974
0.773167
0.775464
0.777822
0.780158
0.782535
0.78501
0.78753
0.789664
0.791707
0.793783
0.795909
0.798104
0.80037
0.802691
0.805083
0.807516
0.809887
0.812167
0.814428
0.816699
0.818987
0.821306
0.823679
0.82612
0.828655
0.831323
0.834261
0.837859
0.841566
0.8378
0.746472
0.787145
0.799603
0.805523
0.806021
0.802659
0.808225
0.813999
0.805875
0.782155
0.750502
0.726489
0.703406
0.679553
0.67332
0.662588
0.645189
0.627135
0.61415
0.600606
0.59086
0.580912
0.57269
0.563439
0.557198
0.550587
0.534389
0.540511
0.547651
0.561697
0.590848
0.62834
0.669316
0.698927
0.727493
0.747532
0.761017
0.777405
0.779432
0.782838
0.784586
0.782064
0.774883
0.769166
0.759741
0.758918
0.760644
0.759304
0.757228
0.754224
0.749333
0.750448
0.751916
0.754218
0.75525
0.756565
0.756581
0.756777
0.757698
0.759057
0.761348
0.764196
0.765898
0.767781
0.77004
0.772424
0.775137
0.777272
0.779064
0.780911
0.782863
0.784991
0.787319
0.789825
0.792206
0.794433
0.796674
0.798906
0.801112
0.803365
0.805703
0.808129
0.810552
0.812835
0.815083
0.817342
0.819636
0.821969
0.824351
0.826787
0.829281
0.831826
0.834384
0.836949
0.839544
0.842226
0.845154
0.848769
0.852625
0.848806
0.736453
0.770911
0.786874
0.804703
0.807056
0.812991
0.825071
0.843096
0.85066
0.841848
0.821738
0.800742
0.78181
0.761703
0.751253
0.741157
0.721993
0.699142
0.679999
0.661576
0.6474
0.633482
0.620331
0.60521
0.589265
0.572877
0.552064
0.564082
0.580478
0.611145
0.665325
0.713641
0.744397
0.766057
0.789204
0.803672
0.819259
0.83064
0.835154
0.839756
0.839776
0.835045
0.826308
0.81767
0.803172
0.786899
0.767784
0.765436
0.768474
0.764708
0.766501
0.765261
0.759263
0.761766
0.761791
0.762785
0.764168
0.764718
0.765456
0.766302
0.767175
0.768906
0.771003
0.773459
0.776744
0.779031
0.780511
0.781956
0.783562
0.785462
0.787752
0.79034
0.792628
0.794712
0.796819
0.799005
0.80129
0.803629
0.805986
0.808429
0.810971
0.81334
0.815591
0.817846
0.82013
0.822456
0.824837
0.827279
0.829775
0.832323
0.834875
0.837444
0.840032
0.842647
0.84532
0.848119
0.851196
0.854993
0.859193
0.855429
0.732416
0.757283
0.773069
0.79531
0.801694
0.8114
0.825532
0.84353
0.864773
0.867775
0.86153
0.84804
0.838152
0.828159
0.819225
0.811218
0.799894
0.782761
0.765008
0.746782
0.727949
0.708355
0.68873
0.661078
0.631096
0.58184
0.591958
0.610743
0.638648
0.686275
0.741997
0.773766
0.79629
0.814156
0.831616
0.844698
0.858616
0.869553
0.875402
0.880156
0.881364
0.876758
0.87143
0.863399
0.847241
0.831205
0.812293
0.786503
0.760717
0.76457
0.775994
0.774488
0.772715
0.769821
0.765244
0.765982
0.767695
0.769656
0.771455
0.770541
0.770588
0.771236
0.773324
0.775675
0.779382
0.780964
0.782331
0.783984
0.786039
0.78841
0.790968
0.793198
0.794948
0.79677
0.798725
0.800866
0.803187
0.805644
0.808343
0.81089
0.813157
0.815434
0.817753
0.820137
0.82258
0.825058
0.827534
0.830031
0.832545
0.835091
0.837659
0.840257
0.842891
0.845564
0.848305
0.851189
0.854356
0.858239
0.862582
0.858795
0.733879
0.753095
0.76597
0.782762
0.792555
0.805357
0.820567
0.838831
0.858963
0.875478
0.875737
0.871098
0.866476
0.861801
0.8571
0.854347
0.851397
0.843945
0.833062
0.817415
0.801205
0.783025
0.758215
0.723986
0.673908
0.615696
0.639954
0.66247
0.696154
0.750922
0.780856
0.804194
0.825026
0.845464
0.864308
0.878043
0.88745
0.89386
0.897842
0.903308
0.90623
0.904149
0.90172
0.896498
0.886846
0.876791
0.857158
0.832221
0.808412
0.771937
0.757872
0.766225
0.778172
0.778193
0.777346
0.77492
0.771746
0.772149
0.77302
0.774574
0.774816
0.775632
0.777578
0.778663
0.780136
0.782558
0.78439
0.786509
0.788957
0.791783
0.793962
0.795523
0.797154
0.798917
0.800891
0.803129
0.805631
0.808294
0.811103
0.813476
0.815793
0.818178
0.820645
0.823201
0.825745
0.828231
0.830714
0.833216
0.835747
0.838333
0.840935
0.843546
0.846176
0.84884
0.851568
0.854447
0.857613
0.86151
0.865895
0.862075
0.738671
0.753387
0.766965
0.775716
0.784463
0.796008
0.810689
0.829091
0.849952
0.868763
0.880562
0.884789
0.882658
0.878745
0.878026
0.878252
0.879929
0.882043
0.879674
0.868413
0.855835
0.837533
0.808225
0.757572
0.663364
0.663028
0.682685
0.70791
0.740646
0.777377
0.798554
0.820472
0.841258
0.85756
0.873819
0.888166
0.897138
0.906076
0.91371
0.916724
0.916559
0.91615
0.918025
0.917701
0.914337
0.909266
0.895423
0.879991
0.860048
0.829606
0.798863
0.75867
0.762199
0.778539
0.783808
0.784712
0.784706
0.780731
0.779939
0.780691
0.781827
0.7828
0.785009
0.785221
0.785955
0.788116
0.79176
0.793456
0.795098
0.796811
0.798556
0.800245
0.802036
0.804032
0.806239
0.808571
0.81088
0.81319
0.815661
0.818355
0.820555
0.822822
0.825225
0.827757
0.830289
0.832793
0.835322
0.837887
0.840473
0.843021
0.845543
0.848061
0.850606
0.85321
0.855903
0.858769
0.861916
0.865776
0.870022
0.866071
0.744082
0.755545
0.768394
0.775206
0.782042
0.78976
0.80081
0.816695
0.836006
0.857301
0.871815
0.886164
0.888811
0.88834
0.886944
0.888857
0.89355
0.902044
0.901578
0.894674
0.88513
0.86258
0.817185
0.746781
0.659407
0.700919
0.715114
0.737665
0.766243
0.784106
0.802989
0.821946
0.841855
0.85713
0.871582
0.88371
0.895002
0.906157
0.916654
0.920252
0.923991
0.924276
0.926226
0.927261
0.926332
0.924703
0.920477
0.9149
0.902954
0.884077
0.860809
0.829314
0.785118
0.763806
0.774586
0.784405
0.794992
0.793083
0.792013
0.788956
0.789799
0.790469
0.793
0.793559
0.794344
0.795504
0.797514
0.799849
0.802503
0.804675
0.806097
0.807656
0.809332
0.811216
0.813298
0.815591
0.81813
0.820609
0.822757
0.824934
0.827165
0.829507
0.831958
0.834481
0.837
0.839499
0.842024
0.844528
0.847034
0.849431
0.851844
0.854271
0.856767
0.8594
0.86215
0.865036
0.868162
0.871963
0.876044
0.871972
0.750072
0.759514
0.770331
0.776889
0.782898
0.788423
0.796919
0.809301
0.824911
0.842362
0.859989
0.87534
0.886966
0.88867
0.887941
0.890826
0.896358
0.909641
0.906717
0.899654
0.885929
0.849678
0.786056
0.686429
0.700152
0.721347
0.734715
0.752726
0.771773
0.786049
0.801332
0.817691
0.831851
0.846241
0.857978
0.868526
0.879235
0.891292
0.897261
0.903615
0.912212
0.921531
0.931582
0.931451
0.930294
0.930337
0.933254
0.936335
0.932659
0.924696
0.912874
0.889983
0.860291
0.824255
0.768103
0.772857
0.793024
0.795927
0.801839
0.800859
0.799162
0.79887
0.799376
0.800173
0.801136
0.80208
0.803733
0.806032
0.808328
0.810846
0.813299
0.814886
0.816558
0.818483
0.820693
0.823102
0.825488
0.827558
0.829524
0.831644
0.834024
0.836627
0.839427
0.842215
0.844741
0.847195
0.849622
0.852052
0.854497
0.856963
0.859501
0.8621
0.86473
0.867458
0.870279
0.873212
0.876385
0.880204
0.884324
0.880163
0.7532
0.763882
0.773966
0.780291
0.784977
0.789611
0.796965
0.806472
0.818752
0.832689
0.849201
0.862693
0.87809
0.885977
0.887395
0.890353
0.896854
0.904477
0.899821
0.892508
0.865729
0.810304
0.715319
0.703737
0.729807
0.735717
0.744892
0.755884
0.767549
0.779765
0.793533
0.808662
0.821342
0.834421
0.845447
0.855168
0.866562
0.874445
0.882728
0.893243
0.904291
0.913467
0.918695
0.925058
0.932406
0.939978
0.945917
0.947578
0.945672
0.948116
0.946491
0.937595
0.921115
0.89292
0.854846
0.811654
0.769046
0.780925
0.79382
0.812239
0.810316
0.808961
0.804269
0.805546
0.806929
0.807941
0.809479
0.812142
0.813709
0.815268
0.81714
0.819541
0.82169
0.823916
0.826455
0.828255
0.829991
0.831891
0.834173
0.836825
0.839201
0.841568
0.844088
0.846759
0.849486
0.852052
0.854618
0.857212
0.85983
0.862461
0.865144
0.867941
0.870811
0.873821
0.876912
0.880052
0.883407
0.887387
0.891887
0.887907
0.752417
0.764671
0.775439
0.784612
0.788349
0.792422
0.798548
0.806808
0.817352
0.829688
0.842768
0.854809
0.867058
0.8786
0.883882
0.89025
0.891799
0.889762
0.886065
0.866056
0.819935
0.742174
0.708903
0.735355
0.739068
0.743972
0.749418
0.755785
0.763797
0.773371
0.784906
0.797649
0.809217
0.820447
0.830771
0.841891
0.851696
0.861147
0.872252
0.884415
0.891821
0.90054
0.910203
0.919849
0.930394
0.942656
0.948641
0.952088
0.955475
0.960376
0.962686
0.964079
0.957979
0.943991
0.918408
0.885185
0.842546
0.779887
0.781727
0.802046
0.805649
0.816879
0.815163
0.813258
0.809974
0.810176
0.810728
0.812795
0.816537
0.817951
0.818855
0.820148
0.822369
0.825305
0.828829
0.831078
0.833104
0.835171
0.83733
0.839762
0.842647
0.845858
0.849111
0.851849
0.854312
0.856765
0.859282
0.861822
0.864418
0.867104
0.869843
0.872704
0.875704
0.878889
0.881902
0.88505
0.88847
0.892497
0.897255
0.893323
0.750851
0.765181
0.77541
0.785992
0.791962
0.796571
0.801586
0.808571
0.817871
0.829109
0.841673
0.853151
0.861096
0.869793
0.884205
0.882846
0.880111
0.87519
0.858185
0.818112
0.755507
0.707034
0.731459
0.736959
0.744499
0.746853
0.749131
0.752539
0.758221
0.766067
0.775419
0.785942
0.797194
0.808328
0.81974
0.830836
0.840702
0.851788
0.864217
0.872908
0.881448
0.892009
0.902986
0.915573
0.924693
0.931205
0.940319
0.950845
0.962255
0.968492
0.969606
0.974829
0.973465
0.970781
0.96028
0.943034
0.915966
0.878132
0.835577
0.776183
0.786499
0.801872
0.815677
0.822965
0.820783
0.818891
0.818854
0.819254
0.820312
0.822193
0.826164
0.828028
0.829915
0.831966
0.834152
0.836637
0.838558
0.840496
0.842659
0.845095
0.847831
0.850914
0.854258
0.856943
0.859305
0.861706
0.864215
0.866712
0.869324
0.872127
0.875117
0.878231
0.881256
0.884324
0.887194
0.890299
0.893757
0.897835
0.902733
0.89874
0.74891
0.765836
0.776293
0.787088
0.793775
0.798914
0.804409
0.811397
0.819461
0.829051
0.839615
0.852112
0.861122
0.871551
0.878279
0.873226
0.866813
0.852011
0.815052
0.755728
0.698128
0.722953
0.73002
0.742478
0.74259
0.743366
0.745117
0.748414
0.753625
0.760502
0.768484
0.777732
0.78809
0.799405
0.811252
0.822053
0.833203
0.845914
0.855253
0.864117
0.87483
0.885921
0.896746
0.908005
0.914931
0.924371
0.934864
0.946068
0.953019
0.95997
0.969165
0.977153
0.982494
0.981785
0.980376
0.976215
0.96718
0.945363
0.912384
0.868877
0.818311
0.788179
0.803374
0.813465
0.835138
0.83413
0.8314
0.828023
0.826607
0.82703
0.828796
0.83412
0.838682
0.839457
0.84056
0.841873
0.843659
0.845594
0.848537
0.852075
0.854523
0.856929
0.859379
0.862001
0.864277
0.866568
0.869003
0.871571
0.874315
0.877141
0.880127
0.883426
0.886853
0.890124
0.892835
0.89585
0.899227
0.903343
0.908394
0.904278
0.746785
0.761798
0.77762
0.789854
0.797115
0.801622
0.806328
0.813018
0.820853
0.829651
0.838419
0.848888
0.860417
0.87354
0.869529
0.861848
0.848951
0.814583
0.756932
0.688707
0.712567
0.722599
0.740631
0.740436
0.74077
0.742378
0.744889
0.748468
0.753048
0.758788
0.765924
0.77449
0.784125
0.794534
0.80522
0.816162
0.828018
0.838497
0.847555
0.857767
0.869847
0.879986
0.890825
0.898699
0.908638
0.919612
0.928746
0.936815
0.945644
0.955122
0.964491
0.973591
0.985503
0.987975
0.991758
0.991439
0.990847
0.983955
0.968433
0.940783
0.905078
0.862139
0.79841
0.800625
0.81996
0.824244
0.841512
0.840573
0.838142
0.834831
0.835423
0.836484
0.839545
0.843255
0.845053
0.846138
0.847381
0.849211
0.851757
0.855398
0.859476
0.861912
0.864335
0.866832
0.869428
0.871671
0.874012
0.876491
0.87923
0.882309
0.885452
0.888753
0.892264
0.895745
0.898723
0.901926
0.905388
0.909641
0.91484
0.910482
0.748155
0.762525
0.777148
0.78902
0.801513
0.805977
0.809129
0.814428
0.821706
0.830065
0.838144
0.847234
0.86172
0.86412
0.857562
0.84853
0.818046
0.76178
0.682102
0.703238
0.716355
0.738004
0.739266
0.740278
0.742512
0.745202
0.748229
0.751671
0.755689
0.760761
0.766985
0.774431
0.783016
0.792254
0.802421
0.813105
0.824816
0.83291
0.842739
0.853862
0.865429
0.87438
0.883774
0.894399
0.90614
0.913543
0.921861
0.930796
0.940492
0.950755
0.961776
0.970886
0.979156
0.986874
0.9951
0.997486
1.00045
0.997969
0.998052
0.987546
0.972723
0.942748
0.900785
0.853484
0.790668
0.803016
0.820572
0.834076
0.848738
0.847121
0.842991
0.840395
0.840883
0.842614
0.845167
0.848791
0.851617
0.853348
0.855699
0.858691
0.862384
0.86673
0.86947
0.871398
0.873686
0.876194
0.878786
0.88148
0.884434
0.887705
0.891346
0.894519
0.897827
0.901298
0.904522
0.907578
0.910909
0.915049
0.920472
0.916101
0.736715
0.76246
0.775666
0.788173
0.800084
0.810201
0.812241
0.815678
0.822127
0.830259
0.837698
0.846729
0.85602
0.851784
0.844206
0.81965
0.768696
0.684615
0.696055
0.711341
0.73586
0.739287
0.740327
0.742932
0.745788
0.748771
0.751941
0.755346
0.759177
0.763647
0.768925
0.775103
0.782374
0.790681
0.800405
0.810568
0.820209
0.830389
0.841478
0.852434
0.860224
0.869826
0.880329
0.892568
0.900305
0.908588
0.917543
0.926595
0.936125
0.94602
0.956529
0.966339
0.976613
0.983394
0.991651
0.998929
1.00475
1.0066
1.01082
1.00993
1.00858
0.996683
0.970363
0.932618
0.883389
0.8258
0.806137
0.825825
0.83307
0.852668
0.853691
0.851464
0.848487
0.848446
0.850042
0.851938
0.85572
0.859007
0.861729
0.86481
0.867974
0.871142
0.87462
0.876548
0.878857
0.881582
0.884612
0.887752
0.891255
0.894819
0.898707
0.901879
0.904681
0.907714
0.910903
0.913396
0.916331
0.920124
0.925864
0.921544
0.725153
0.75768
0.770711
0.782906
0.794635
0.808468
0.811725
0.814369
0.82101
0.830371
0.838206
0.845305
0.843447
0.836645
0.815871
0.769833
0.688395
0.692143
0.707381
0.733546
0.737682
0.738614
0.741434
0.74514