/*--------------------------------*- C++ -*----------------------------------*\
| =========                 |                                                 |
| \\      /  F ield         | OpenFOAM: The Open Source CFD Toolbox           |
|  \\    /   O peration     | Version:  v2106                                 |
|   \\  /    A nd           | Website:  www.openfoam.com                      |
|    \\/     M anipulation  |                                                 |
\*---------------------------------------------------------------------------*/
FoamFile
{
    version     2.0;
    format      ascii;
    arch        "LSB;label=32;scalar=64";
    class       volScalarField;
    location    "6";
    object      T;
}
// * * * * * * * * * * * * * * * * * * * * * * * * * * * * * * * * * * * * * //

dimensions      [0 0 0 1 0 0 0];

internalField   nonuniform List<scalar> 
5250
(
1
1
1
1
1
1
1
1
1.00002
1.00016
1.00145
1.01346
1.1065
1.49089
2.76106
2.67338
2.53004
2.51763
2.56107
2.55243
2.55644
2.5654
2.56484
2.56136
2.55468
1
1
1
1
1
1
1
1
1.00002
1.00016
1.00141
1.01308
1.10384
1.48226
2.74587
2.67426
2.52548
2.51079
2.55452
2.54675
2.55117
2.56102
2.56065
2.55726
2.55072
1
1
1
1
1
1
1
1
1.00002
1.00015
1.00133
1.01238
1.09884
1.46309
2.7147
2.6807
2.51729
2.49667
2.54193
2.53474
2.5399
2.55088
2.55052
2.54702
2.54018
1
1
1
1
1
1
1
1
1.00002
1.00015
1.00129
1.0116
1.08916
1.43363
2.62968
2.69588
2.49438
2.47234
2.52226
2.51645
2.52335
2.53754
2.53785
2.53444
2.52772
1
1
1
1
1
1
1
1
1.00001
1.00012
1.00108
1.00953
1.07604
1.39405
2.43948
2.71437
2.43694
2.42693
2.48655
2.48867
2.5004
2.51968
2.52188
2.51898
2.51246
1
1
1
1
1
1
1
1
1.00001
1.0001
1.00088
1.00762
1.06203
1.34057
2.14649
2.74411
2.35517
2.35941
2.43095
2.4476
2.47112
2.4996
2.50333
2.50044
2.49123
1
1
1
1
1
1
1
1
1.00001
1.00008
1.0007
1.00592
1.04867
1.28732
1.96066
2.84921
2.26889
2.25896
2.32817
2.37728
2.42857
2.46919
2.47891
2.47552
2.46635
1
1
1
1
1
1
1
1
1.00001
1.00005
1.00047
1.00409
1.03729
1.23742
1.85303
3.01117
2.34075
2.26222
2.29107
2.31004
2.36083
2.4261
2.44858
2.44843
2.42085
1
1
1
1
1
1
1
1
1
1.00004
1.00033
1.0029
1.02878
1.19592
1.74475
3.11223
2.44956
2.30159
2.30488
2.28747
2.30337
2.35966
2.39831
2.40983
2.35717
1
1
1
1
1
1
1
1
1
1.00003
1.00026
1.00236
1.02179
1.15694
1.64244
3.05877
2.51827
2.37688
2.34171
2.28981
2.27324
2.30037
2.33864
2.35627
2.20977
1
1
1
1
1
1
1
1
1
1.00002
1.0002
1.00174
1.01614
1.12286
1.5374
2.90305
2.5322
2.45346
2.40082
2.32411
2.2646
2.23429
2.24083
2.21201
1.96444
1
1
1
1
1
1
1
1
1
1.00002
1.00015
1.00129
1.01148
1.08783
1.433
2.69916
2.58614
2.4156
2.38512
2.34651
2.28201
2.20789
2.19234
2.16246
1.83128
1
1
1
1
1
1
1
1
1
1.00001
1.00008
1.00076
1.00686
1.05578
1.32837
2.29313
2.65913
2.33957
2.33393
2.33354
2.30309
2.2308
2.14301
2.10987
1.83339
1
1
1
1
1
1
1
1
1
1.00001
1.00005
1.00045
1.00401
1.0353
1.22809
1.84433
2.85587
2.2877
2.28243
2.30229
2.29041
2.2366
2.15169
2.06854
1.84268
1
1
1
1
1
1
1
1
1
1
1.00003
1.00022
1.00211
1.02305
1.16579
1.66122
2.92251
2.28961
2.25282
2.27049
2.26648
2.22508
2.15328
2.06435
1.87899
1
1
1
1
1
1
1
1
1
1
1.00002
1.00017
1.0015
1.01406
1.10908
1.50274
2.8369
2.37911
2.21419
2.214
2.22239
2.20199
2.15217
2.07242
1.9324
1
1
1
1
1
1
1
1
1
1
1.00001
1.00011
1.00092
1.00812
1.06537
1.35783
2.59945
2.53914
2.21994
2.14838
2.16456
2.16887
2.14185
2.08009
1.97181
1
1
1
1
1
1
1
1
1
1
1.00001
1.00004
1.00041
1.00364
1.03253
1.218
1.87625
2.82036
2.24467
2.1512
2.14815
2.14091
2.11827
2.07186
1.98893
1
1
1
1
1
1
1
1
1
1
1
1.00003
1.00024
1.00212
1.01901
1.13981
1.5873
2.79451
2.30176
2.17445
2.11287
2.10632
2.08889
2.05432
1.98864
1
1
1
1
1
1
1
1
1
1
1
1.00001
1.00013
1.0011
1.00939
1.07425
1.3932
2.63171
2.45956
2.15988
2.06008
2.059
2.05238
2.03097
1.98294
1
1
1
1
1
1
1
1
1
1
1
1.00001
1.00005
1.00044
1.00381
1.03366
1.22493
1.91846
2.74998
2.18541
2.115
2.05129
2.02977
2.00456
1.96719
1
1
1
1
1
1
1
1
1
1
1
1
1.00003
1.00025
1.0021
1.01755
1.12674
1.56003
2.70289
2.29133
2.12354
2.03299
2.00342
1.97711
1.94484
1
1
1
1
1
1
1
1
1
1
1
1
1.00001
1.00008
1.00076
1.00653
1.05599
1.33859
2.50547
2.47954
2.13225
2.03548
1.99256
1.96272
1.93026
1
1
1
1
1
1
1
1
1
1
1
1
1.00001
1.00005
1.00038
1.00307
1.02503
1.16908
1.76034
2.70538
2.19944
2.07995
1.98462
1.9488
1.9144
1
1
1
1
1
1
1
1
1
1
1
1
1
1.00001
1.00011
1.00105
1.00898
1.07428
1.42425
2.55741
2.38344
2.08123
1.99509
1.95014
1.91209
1
1
1
1
1
1
1
1
1
1
1
1
1
1.00001
1.00006
1.00047
1.00364
1.02919
1.19368
1.85366
2.6521
2.14236
2.04582
1.94776
1.91373
1
1
1
1
1
1
1
1
1
1
1
1
1
1
1.00002
1.00013
1.00118
1.01037
1.08298
1.4581
2.52878
2.32677
2.03603
1.95802
1.91794
1
1
1
1
1
1
1
1
1
1
1
1
1
1
1.00001
1.00006
1.0005
1.00378
1.03054
1.20288
1.86574
2.59888
2.11231
2.00245
1.91825
1
1
1
1
1
1
1
1
1
1
1
1
1
1
1
1.00003
0.999984
1.0008
1.00915
1.07739
1.44475
2.4982
2.32108
2.01554
1.94194
1
1
1
1
1
1
1
1
1
1
1
1
1
1
1
1.00001
1.00006
1.00049
1.00375
1.02959
1.20325
1.86767
2.54702
2.1115
1.98359
1
1
1
1
1
1
1
1
1
1
1
1
1
1
1
1
1.00002
1.00011
1.00093
1.00778
1.06358
1.35149
2.39432
2.28671
1.96029
1
1
1
1
1
1
1
1
1
1
1
1
1
1
1
1
1.00001
1.00007
0.999941
1.00175
1.01347
1.09626
1.73825
2.55911
2.14745
1
1
1
1
1
1
1
1
1
1
1
1
1
1
1
1
1
1.00001
1.00009
1.00076
1.00611
1.04708
1.29332
2.29571
2.37814
1
1
1
1
1
1
1
1
1
1
1
1
1
1
1
1
1
1
1.00002
1.00016
1.00153
1.01079
1.08945
1.57111
2.4569
1
1
1
1
1
1
1
1
1
1
1
1
1
1
1
1
1
1
1.00001
1.00008
1.00066
1.00474
1.03635
1.23404
1.96125
1
1
1
1
1
1
1
1
1
1
1
1
1
1
1
1
1
1
1
1.00001
1.00011
1.00087
1.00736
1.06136
1.34836
1
1
1
1
1
1
1
1
1
1
1
1
1
1
1
1
1
1
1
1.00001
1.00009
1.00004
1.00183
1.0102
1.07541
1
1
1
1
1
1
1
1
1
1
1
1
1
1
1
1
1
1
1
1
1.00001
1.00009
1.00065
1.00512
1.03863
1
1
1
1
1
1
1
1
1
1
1
1
1
1
1
1
1
1
1
1
1
1.00003
1.00018
1.00126
1.00758
1
1
1
1
1
1
1
1
1
1
1
1
1
1
1
1
1
1
1
1
1
1.00001
1.00007
1.00042
1.00291
1
1
1
1
1
1
1
1
1
1
1
1
1
1
1
1
1
1
1
1
1
1
1.00001
1.00009
1.00058
1
1
1
1
1
1
1
1
1
1
1
1
1
1
1
1
1
1
1
1
1
1
1
1.00002
1.00016
1
1
1
1
1
1
1
1
1
1
1
1
1
1
1
1
1
1
1
1
1
1
1
1.00002
1.00026
1
1
1
1
1
1
1
1
1
1
1
1
1
1
1
1
1
1
1
1
1
1
1
1
1.00004
1
1
1
1
1
1
1
1
1
1
1
1
1
1
1
1
1
1
1
1
1
1
1
1
1.00003
1
1
1
1
1
1
1
1
1
1
1
1
1
1
1
1
1
1
1
1
1
1
1
1
1.00003
1
1
1
1
1
1
1
1
1
1
1
1
1
1
1
1
1
1
1
1
1
1
1
1
1.00003
1
1
1
1
1
1
1
1
1
1
1
1
1
1
1
1
1
1
1
1
1
1
1
1
1.00003
1
1
1
1
1
1
1
1
1
1
1
1
1
1
1
1
1
1
1
1
1
1
1
1
1.00003
1
1
1
1
1
1
1
1
1
1
1
1
1
1
1
1
1
1
1
1
1
1
1
1
1.00003
2.19097
2.46405
2.61937
2.60912
2.59696
2.6863
2.72901
2.58921
2.47378
2.45654
2.45797
2.46701
2.47333
2.4923
2.45026
2.39644
2.37198
2.36724
2.36689
2.37119
2.37213
2.37206
2.37001
2.36989
2.36486
2.36088
2.35791
2.35422
2.35177
2.3544
2.3648
2.37474
2.40475
2.43212
2.45542
2.48259
2.52248
2.56216
2.58687
2.60178
2.64241
2.67392
2.70545
2.73082
2.74363
2.75349
2.76843
2.77489
2.79445
2.78786
2.77961
2.76946
2.75754
2.74736
2.73633
2.72337
2.71062
2.69764
2.68518
2.67236
2.65992
2.6478
2.6358
2.62345
2.61162
2.5999
2.58804
2.57679
2.56581
2.55528
2.54473
2.53455
2.52432
2.51449
2.50464
2.49527
2.48586
2.47697
2.46794
2.45917
2.45031
2.44137
2.43238
2.42328
2.4141
2.40495
2.39572
2.38675
2.37761
2.36866
2.35958
2.35056
2.34149
2.33228
2.32302
2.31334
2.3035
2.28944
2.28525
2.29107
2.18852
2.42315
2.52964
2.647
2.65226
2.76172
2.86646
2.78446
2.64255
2.63809
2.66495
2.69619
2.71292
2.72338
2.66527
2.63549
2.61683
2.61652
2.61876
2.61939
2.61849
2.616
2.61441
2.61871
2.60837
2.60452
2.60233
2.59578
2.59183
2.59625
2.60778
2.61201
2.6393
2.66203
2.679
2.70691
2.74385
2.77143
2.78907
2.80029
2.80969
2.8365
2.87312
2.86264
2.85221
2.84939
2.83232
2.81681
2.79586
2.7701
2.74415
2.71833
2.6907
2.66866
2.64666
2.6236
2.6005
2.57856
2.56091
2.54363
2.52574
2.50905
2.49433
2.47957
2.46439
2.45034
2.43627
2.4232
2.41055
2.39885
2.38721
2.37623
2.3652
2.35484
2.34447
2.33513
2.32596
2.3181
2.31022
2.30297
2.29567
2.28831
2.28089
2.27337
2.26568
2.2585
2.25129
2.24478
2.2382
2.23193
2.22559
2.21924
2.21279
2.20613
2.1993
2.19205
2.18427
2.17196
2.17015
2.17788
1.95533
2.15927
2.34192
2.52914
2.56694
2.58674
2.62778
2.77256
2.80626
2.83417
2.79117
2.72207
2.74648
2.79064
2.83511
2.75385
2.71418
2.70911
2.71396
2.72273
2.7246
2.72198
2.71818
2.71247
2.71022
2.71017
2.70778
2.7055
2.70437
2.70558
2.71929
2.72947
2.75673
2.77711
2.79263
2.79974
2.88058
2.87757
2.87225
2.88052
2.87213
2.85347
2.81792
2.76706
2.71501
2.67482
2.63077
2.59446
2.55153
2.51726
2.48371
2.45226
2.42627
2.40686
2.38756
2.3656
2.34679
2.32704
2.31099
2.29593
2.28001
2.26446
2.25141
2.23904
2.22653
2.21448
2.2029
2.19222
2.18247
2.17296
2.16338
2.15424
2.14524
2.1365
2.12774
2.11918
2.11046
2.10262
2.09471
2.08793
2.08155
2.07538
2.06931
2.06322
2.05708
2.05094
2.04468
2.03837
2.03186
2.02529
2.01863
2.01206
2.00549
1.99915
1.99278
1.98634
1.97945
1.96884
1.96669
1.97486
1.79606
1.88963
2.03641
2.25534
2.41525
2.42612
2.39342
2.50174
2.61871
2.70872
2.75902
2.74363
2.71825
2.69077
2.75707
2.78296
2.78126
2.77435
2.72357
2.70388
2.72741
2.72664
2.72327
2.72406
2.71103
2.69991
2.69685
2.69648
2.70544
2.72271
2.74787
2.7876
2.82317
2.82578
2.84165
2.83664
2.81506
2.76392
2.70171
2.64537
2.60282
2.55352
2.51063
2.45658
2.4171
2.38797
2.36169
2.32899
2.30828
2.28557
2.25508
2.23828
2.22109
2.20751
2.19317
2.17569
2.16253
2.14917
2.13686
2.12674
2.1157
2.10373
2.09172
2.08097
2.07087
2.06188
2.05315
2.04459
2.036
2.02788
2.02018
2.01292
2.00575
1.99865
1.99153
1.98445
1.97722
1.97044
1.96361
1.95712
1.95083
1.94481
1.93909
1.93354
1.92799
1.92273
1.91757
1.91248
1.9073
1.90198
1.89647
1.89073
1.88473
1.87849
1.87198
1.86527
1.85812
1.84821
1.84363
1.85144
1.7682
1.79106
1.86457
1.99608
2.17432
2.24173
2.16231
2.22864
2.33947
2.45159
2.57585
2.64028
2.63972
2.62115
2.62523
2.65695
2.69975
2.73147
2.73607
2.72931
2.72154
2.71249
2.71082
2.71543
2.718
2.71676
2.70834
2.70764
2.71478
2.73355
2.76464
2.76951
2.75002
2.7128
2.67245
2.61721
2.56215
2.49257
2.42251
2.38423
2.34251
2.29703
2.25995
2.21752
2.19616
2.17574
2.16038
2.14061
2.12909
2.11558
2.10261
2.08747
2.07338
2.06494
2.05562
2.04442
2.03452
2.02767
2.01934
2.01107
2.00183
1.99123
1.98153
1.97393
1.96689
1.95977
1.95225
1.94401
1.93702
1.93086
1.92466
1.91829
1.9116
1.90481
1.89803
1.89193
1.88671
1.8815
1.87607
1.87037
1.86439
1.85827
1.8525
1.847
1.84191
1.83707
1.83231
1.8276
1.82284
1.81797
1.81296
1.80781
1.80247
1.79695
1.79115
1.78503
1.77829
1.76945
1.76299
1.77059
1.7858
1.74986
1.77406
1.84441
1.92817
2.03043
2.00102
2.04903
2.14638
2.25648
2.33986
2.4308
2.47203
2.46978
2.48595
2.52075
2.56487
2.60826
2.64183
2.66525
2.6781
2.68369
2.6844
2.68086
2.68338
2.68624
2.69015
2.70261
2.70257
2.70019
2.6846
2.66023
2.63135
2.57379
2.5027
2.40729
2.33555
2.24892
2.18682
2.14754
2.09943
2.0743
2.05406
2.04201
2.03562
2.02498
2.02242
2.01749
2.00762
2.00039
1.99608
1.98065
1.9746
1.96807
1.96149
1.95634
1.95003
1.94472
1.93829
1.93053
1.9219
1.91466
1.90925
1.90441
1.89889
1.89195
1.88387
1.87714
1.87196
1.86673
1.86111
1.85497
1.84861
1.84267
1.8372
1.83206
1.82695
1.82176
1.81646
1.81106
1.80579
1.80067
1.79557
1.79045
1.78544
1.78038
1.77522
1.77006
1.76518
1.76037
1.75559
1.7508
1.74594
1.74098
1.7358
1.7303
1.72415
1.71649
1.70902
1.71642
1.83028
1.76265
1.74843
1.76853
1.79418
1.83926
1.83755
1.84952
1.91333
2.01133
2.09367
2.17217
2.24882
2.28844
2.30866
2.35556
2.39869
2.4472
2.48514
2.52358
2.56019
2.58277
2.60385
2.62097
2.63585
2.64029
2.65627
2.64557
2.64379
2.64216
2.59897
2.51631
2.4021
2.28168
2.19367
2.10384
2.05214
1.99243
1.97866
1.96085
1.93797
1.92748
1.9254
1.92592
1.92772
1.92079
1.92004
1.91793
1.92171
1.92228
1.92159
1.91658
1.90861
1.90367
1.90047
1.89811
1.89569
1.89161
1.88761
1.88178
1.87359
1.87017
1.8665
1.86158
1.85521
1.84775
1.84137
1.83667
1.83184
1.82685
1.82167
1.81627
1.81076
1.80534
1.79986
1.79418
1.78844
1.78361
1.77901
1.77435
1.76961
1.76475
1.75975
1.75466
1.74945
1.74418
1.73907
1.73419
1.72937
1.72456
1.71975
1.71489
1.70995
1.7049
1.69968
1.69423
1.68826
1.68101
1.67361
1.68113
1.88681
1.78932
1.76144
1.74849
1.74741
1.75473
1.74265
1.73028
1.74773
1.80073
1.87668
1.93871
2.00233
2.07261
2.0918
2.12568
2.183
2.24585
2.29334
2.34505
2.38373
2.42455
2.45936
2.49974
2.52774
2.55809
2.63563
2.60578
2.5718
2.50749
2.38378
2.24154
2.10431
2.01516
1.93603
1.88414
1.85075
1.81173
1.80702
1.79916
1.79515
1.80094
1.81763
1.83114
1.85386
1.85587
1.85166
1.85492
1.86001
1.86742
1.87961
1.87681
1.87315
1.86743
1.86488
1.86164
1.8616
1.86112
1.85885
1.85553
1.84994
1.84305
1.83895
1.83444
1.82906
1.82342
1.81703
1.81204
1.80788
1.8036
1.7991
1.79423
1.78892
1.78324
1.77789
1.7729
1.76791
1.76297
1.75812
1.75319
1.7481
1.74285
1.73764
1.73276
1.72798
1.72321
1.71839
1.71351
1.70856
1.70352
1.6984
1.6932
1.68801
1.68284
1.67764
1.6723
1.6665
1.6594
1.6519
1.65933
1.91248
1.82699
1.78993
1.75027
1.74517
1.73243
1.70707
1.67057
1.65572
1.67305
1.71399
1.75893
1.80152
1.84908
1.8748
1.90034
1.95078
2.01454
2.07126
2.12893
2.17555
2.22335
2.27048
2.32721
2.39018
2.45856
2.55125
2.49689
2.42636
2.30461
2.11694
1.97361
1.89207
1.83857
1.78465
1.75252
1.71918
1.69562
1.68646
1.67721
1.67717
1.68668
1.70451
1.72252
1.75361
1.78988
1.83444
1.84006
1.83279
1.84181
1.83751
1.84049
1.85502
1.84893
1.84887
1.84646
1.84312
1.84179
1.84001
1.83798
1.83589
1.83176
1.82678
1.82098
1.81327
1.80795
1.80452
1.80119
1.7975
1.79315
1.78794
1.78208
1.77694
1.77228
1.76759
1.76275
1.75773
1.75261
1.74749
1.74221
1.73675
1.73169
1.72691
1.72215
1.71735
1.71249
1.70755
1.70251
1.69739
1.69219
1.68702
1.68184
1.67666
1.67146
1.66617
1.66068
1.65467
1.64732
1.63927
1.64648
1.92302
1.85987
1.8219
1.77095
1.75684
1.73583
1.70611
1.66971
1.62869
1.62306
1.63482
1.66083
1.68042
1.7007
1.71925
1.73622
1.7608
1.79934
1.84109
1.88603
1.93482
1.98834
2.045
2.13054
2.23175
2.42069
2.37931
2.30613
2.20536
2.05231
1.89819
1.82025
1.76877
1.72995
1.69363
1.6674
1.64037
1.61974
1.60892
1.60023
1.59803
1.60643
1.61625
1.63129
1.6624
1.69447
1.73392
1.79078
1.85148
1.84215
1.81503
1.81856
1.82273
1.82958
1.84052
1.83875
1.83465
1.82997
1.82571
1.82787
1.82776
1.82622
1.8213
1.81577
1.80714
1.80348
1.80033
1.79653
1.79183
1.78644
1.78067
1.77566
1.77175
1.7677
1.76337
1.75866
1.75358
1.74823
1.74239
1.73692
1.73208
1.72724
1.72234
1.71734
1.71224
1.70709
1.70199
1.69686
1.69174
1.68658
1.68141
1.67621
1.67098
1.66569
1.66031
1.65469
1.64855
1.64109
1.63283
1.64003
1.91919
1.87022
1.83878
1.79933
1.7771
1.74885
1.71644
1.67906
1.63971
1.60878
1.6083
1.61687
1.62549
1.63431
1.64327
1.64857
1.65428
1.66889
1.69069
1.72305
1.75791
1.79873
1.85759
1.94541
2.08997
2.28757
2.20086
2.12606
2.02319
1.87563
1.80373
1.75138
1.70716
1.66589
1.62957
1.60408
1.58708
1.57569
1.56871
1.55921
1.55419
1.55776
1.56196
1.57106
1.58816
1.60637
1.64316
1.6924
1.74224
1.82457
1.85843
1.83817
1.80995
1.8099
1.81187
1.81754
1.82502
1.82407
1.82201
1.81835
1.81779
1.81588
1.81133
1.80881
1.80539
1.7998
1.7956
1.79076
1.78521
1.77883
1.77395
1.77047
1.76685
1.76295
1.7586
1.7537
1.74826
1.7425
1.73646
1.7314
1.72648
1.72145
1.71627
1.71094
1.70567
1.70055
1.69547
1.69038
1.68526
1.68006
1.67486
1.66968
1.66449
1.65927
1.65395
1.64838
1.64229
1.63486
1.62658
1.63379
1.90674
1.86949
1.8364
1.81568
1.79543
1.76939
1.73735
1.69879
1.65709
1.62121
1.59949
1.59185
1.59569
1.6028
1.60411
1.6037
1.60064
1.59681
1.60111
1.62187
1.6457
1.68167
1.74265
1.85916
2.12319
2.12427
2.0631
1.98959
1.90165
1.8118
1.76375
1.71663
1.67422
1.64239
1.61183
1.5858
1.56994
1.55445
1.54146
1.5364
1.53667
1.53736
1.53422
1.53476
1.54041
1.549
1.57294
1.60053
1.63764
1.69773
1.76307
1.85647
1.84788
1.80909
1.79693
1.79486
1.79488
1.80402
1.80585
1.80411
1.80149
1.79925
1.79418
1.7937
1.79203
1.78711
1.77889
1.77508
1.77142
1.76761
1.76375
1.76002
1.7561
1.75174
1.74694
1.7419
1.73694
1.73201
1.72676
1.72107
1.71646
1.71173
1.70675
1.70153
1.69634
1.69124
1.68612
1.68096
1.67578
1.67072
1.66574
1.66079
1.65582
1.65077
1.64557
1.64008
1.63409
1.62681
1.61887
1.62625
1.89287
1.86415
1.83298
1.81687
1.80099
1.78339
1.75878
1.72457
1.68474
1.64289
1.61554
1.58938
1.58465
1.58549
1.58798
1.58456
1.57624
1.5614
1.56221
1.57426
1.59124
1.63283
1.72354
1.88603
2.13594
2.00944
1.96955
1.90934
1.83813
1.79625
1.75401
1.71356
1.67303
1.64322
1.61597
1.59379
1.57368
1.55431
1.53651
1.5305
1.52431
1.52384
1.52063
1.51894
1.52046
1.52314
1.53013
1.53946
1.55983
1.59313
1.63619
1.69833
1.79393
1.84399
1.81833
1.79556
1.77165
1.77592
1.77832
1.78521
1.7833
1.78179
1.7761
1.77485
1.7731
1.77051
1.76605
1.76089
1.75507
1.75034
1.74725
1.74387
1.74026
1.73622
1.73178
1.72691
1.72155
1.71635
1.71187
1.70735
1.70274
1.69794
1.69293
1.68782
1.68274
1.67773
1.6727
1.66774
1.6628
1.65811
1.65341
1.64872
1.64391
1.63888
1.63365
1.6282
1.62234
1.61526
1.60774
1.61525
1.87776
1.85441
1.82837
1.81294
1.79902
1.78641
1.76737
1.74033
1.7074
1.67203
1.63775
1.60903
1.58794
1.5849
1.5862
1.58106
1.5713
1.54836
1.55335
1.56555
1.5898
1.65763
1.79179
2.05185
2.01164
1.95253
1.917
1.87113
1.82495
1.79181
1.75764
1.72247
1.69315
1.66436
1.64159
1.62166
1.60191
1.58024
1.56972
1.55868
1.54399
1.52838
1.51189
1.5121
1.51398
1.51392
1.50918
1.50422
1.51015
1.52315
1.54288
1.58256
1.63718
1.70876
1.83367
1.82239
1.77605
1.76957
1.75653
1.75867
1.76241
1.76305
1.76194
1.76018
1.75807
1.756
1.75239
1.74739
1.74242
1.73701
1.73177
1.7284
1.72486
1.72081
1.71617
1.71115
1.7062
1.70194
1.6979
1.69357
1.68874
1.68349
1.67787
1.67232
1.66732
1.66249
1.65774
1.65301
1.64828
1.64354
1.63868
1.63374
1.62878
1.62365
1.61839
1.61295
1.60711
1.60014
1.59269
1.60022
1.86996
1.84381
1.81978
1.80503
1.79426
1.78373
1.76727
1.74644
1.72024
1.69145
1.65856
1.63262
1.60399
1.58971
1.58717
1.5819
1.57043
1.5572
1.56526
1.57808
1.62689
1.73818
1.96898
2.00139
1.92989
1.91439
1.89081
1.86332
1.835
1.80625
1.77491
1.74171
1.71482
1.68794
1.66592
1.64699
1.62533
1.61068
1.59557
1.57678
1.55752
1.54187
1.5331
1.52255
1.51055
1.49839
1.48898
1.48637
1.48937
1.48553
1.48808
1.50219
1.52907
1.57735
1.64761
1.73528
1.83143
1.80357
1.77427
1.73403
1.73815
1.74106
1.75122
1.74844
1.74545
1.74326
1.73995
1.73424
1.7309
1.72759
1.72363
1.71859
1.71409
1.70946
1.70421
1.7005
1.69695
1.69307
1.68844
1.68309
1.67832
1.6736
1.66861
1.66334
1.658
1.65301
1.64805
1.64306
1.63806
1.63306
1.628
1.62275
1.6174
1.61183
1.60615
1.60042
1.59434
1.58719
1.57918
1.58626
1.8719
1.8419
1.81633
1.79509
1.78658
1.7774
1.76376
1.74571
1.72319
1.69757
1.67122
1.64768
1.6244
1.60306
1.59348
1.58208
1.57934
1.58295
1.58956
1.62628
1.71776
1.89774
1.9868
1.91533
1.90571
1.89315
1.87939
1.86356
1.84401
1.82118
1.79442
1.76575
1.74051
1.71669
1.69535
1.67296
1.6537
1.63555
1.61473
1.59252
1.5793
1.56401
1.5474
1.53118
1.51382
1.49413
1.4847
1.47933
1.47408
1.46656
1.46304
1.46093
1.47023
1.49202
1.53358
1.59114
1.67166
1.80597
1.80172
1.75607
1.74822
1.72418
1.72781
1.73186
1.73888
1.73845
1.73727
1.73285
1.72491
1.72193
1.72003
1.71731
1.71267
1.70658
1.69933
1.69473
1.69061
1.68642
1.68207
1.6772
1.67146
1.66512
1.65874
1.6534
1.64864
1.64392
1.6391
1.63427
1.62936
1.62432
1.6192
1.61389
1.60836
1.60254
1.59706
1.59138
1.58525
1.5781
1.56973
1.57664
1.87581
1.84068
1.8164
1.79194
1.77843
1.76814
1.75708
1.7419
1.72209
1.69875
1.67339
1.65088
1.63565
1.61929
1.5929
1.59535
1.60031
1.60931
1.6412
1.72159
1.86425
1.99206
1.92554
1.91117
1.89181
1.88585
1.88011
1.8716
1.85757
1.83855
1.81637
1.79205
1.76676
1.74243
1.71817
1.69522
1.67533
1.65352
1.62974
1.61352
1.59788
1.57896
1.55977
1.53833
1.52315
1.5125
1.49784
1.48126
1.4637
1.45427
1.4526
1.44482
1.44684
1.45084
1.46671
1.49353
1.53767
1.60392
1.6856
1.81459
1.79078
1.75645
1.72673
1.71144
1.71598
1.71995
1.72003
1.71919
1.71697
1.71304
1.70481
1.70097
1.6971
1.69292
1.68848
1.68347
1.67961
1.67574
1.67144
1.66662
1.66124
1.65522
1.64874
1.64358
1.63906
1.63449
1.62975
1.62505
1.62017
1.61496
1.60944
1.60374
1.59823
1.59269
1.58753
1.582
1.57588
1.56872
1.56021
1.56714
1.88067
1.8391
1.81433
1.78944
1.77437
1.76296
1.75091
1.73583
1.71875
1.69887
1.6775
1.65289
1.6356
1.61603
1.60365
1.61293
1.62486
1.65309
1.72805
1.8637
2.01747
1.94819
1.92933
1.89696
1.89667
1.89469
1.89024
1.88191
1.8689
1.852
1.83277
1.81097
1.78717
1.76187
1.73614
1.71333
1.6904
1.665
1.64682
1.62993
1.60997
1.58981
1.57062
1.55115
1.53941
1.52369
1.50658
1.48874
1.47788
1.46718
1.45326
1.44138
1.43355
1.43458
1.43664
1.44277
1.45624
1.48985
1.5437
1.621
1.72117
1.78697
1.75317
1.73142
1.68649
1.68853
1.69407
1.70098
1.70389
1.70302
1.69939
1.68855
1.67936
1.67781
1.67561
1.673
1.66945
1.66563
1.65986
1.65297
1.64823
1.6436
1.63892
1.63393
1.62963
1.62532
1.62077
1.61599
1.61092
1.60573
1.60028
1.5943
1.58814
1.58231
1.5775
1.57219
1.56629
1.55915
1.55048
1.55754
1.88602
1.84885
1.81123
1.78318
1.76693
1.757
1.74675
1.73237
1.71584
1.69764
1.67989
1.65917
1.63694
1.61235
1.61979
1.63422
1.65905
1.72905
1.86074
2.04507
1.97659
1.94915
1.90169
1.90219
1.90133
1.89722
1.89082
1.88178
1.87033
1.85618
1.83889
1.81855
1.79621
1.77268
1.74915
1.7257
1.70099
1.67973
1.66178
1.642
1.61919
1.60054
1.58106
1.56721
1.55007
1.53157
1.51651
1.50345
1.48941
1.47463
1.4603
1.44666
1.42917
1.42559
1.42016
1.42061
1.42146
1.43142
1.45436
1.4971
1.55616
1.63367
1.76407
1.75919
1.71771
1.70878
1.67371
1.67558
1.68044
1.68711
1.68591
1.68378
1.67764
1.67025
1.6667
1.66456
1.66212
1.65854
1.65358
1.64654
1.63873
1.6341
1.62952
1.62483
1.61997
1.61581
1.61148
1.60692
1.60191
1.59632
1.59066
1.58475
1.57851
1.57238
1.56717
1.5616
1.55563
1.54836
1.53956
1.54693
1.88257
1.84709
1.81233
1.78506
1.75724
1.74751
1.7407
1.72937
1.71406
1.6968
1.68044
1.66241
1.63446
1.62993
1.64239
1.65987
1.72173
1.84889
2.06487
2.00281
1.96613
1.90846
1.9052
1.9026
1.89687
1.89003
1.88238
1.87376
1.8638
1.85137
1.83635
1.81869
1.79875
1.77778
1.75525
1.73219
1.70759
1.691
1.67128
1.64951
1.62746
1.6108
1.59368
1.57475
1.55434
1.54174
1.52783
1.51317
1.49757
1.4814
1.46443
1.45069
1.43843
1.42718
1.41539
1.412
1.40782
1.41132
1.4112
1.42621
1.44795
1.49398
1.56358
1.65024
1.78134
1.75395
1.71643
1.68864
1.65947
1.66263
1.67078
1.67594
1.67497
1.67152
1.66648
1.65936
1.65385
1.6505
1.64596
1.64023
1.63321
1.62502
1.6199
1.61631
1.61208
1.60746
1.60272
1.59783
1.59249
1.58662
1.58014
1.57453
1.56873
1.56269
1.55712
1.55188
1.5462
1.53921
1.53014
1.53744
1.9118
1.84724
1.8158
1.78698
1.76038
1.7384
1.73403
1.72672
1.71318
1.6964
1.68133
1.6634
1.64535
1.65353
1.66837
1.71836
1.83226
2.05729
2.02348
1.97999
1.91402
1.90515
1.90247
1.8958
1.88854
1.88102
1.87309
1.86464
1.85523
1.84437
1.83171
1.81711
1.80023
1.78131
1.75967
1.73761
1.71719
1.69613
1.67378
1.65227
1.63731
1.61923
1.59991
1.57798
1.56442
1.55015
1.53502
1.52003
1.50455
1.48882
1.47246
1.45751
1.44218
1.43223
1.42031
1.40996
1.40179
1.39922
1.39337
1.39461
1.39646
1.41314
1.45147
1.51021
1.59437
1.70556
1.74716
1.70551
1.69068
1.65182
1.64984
1.65415
1.65995
1.66004
1.65692
1.65323
1.64592
1.63963
1.63445
1.62862
1.62269
1.61679
1.61036
1.60682
1.60259
1.59764
1.59217
1.58654
1.5803
1.57401
1.5672
1.56168
1.55685
1.55165
1.54621
1.54199
1.53705
1.53072
1.52123
1.52836
1.94228
1.8589
1.82747
1.799
1.77245
1.74212
1.73513
1.7295
1.71551
1.69617
1.68032
1.6662
1.66988
1.68345
1.72632
1.82955
2.04599
2.03491
1.99108
1.92006
1.90929
1.90688
1.89963
1.89018
1.88181
1.87329
1.86518
1.85638
1.84702
1.83721
1.82616
1.81376
1.79923
1.7826
1.76428
1.74421
1.72361
1.70121
1.68139
1.6618
1.64391
1.62531
1.60526
1.58953
1.57262
1.5562
1.53923
1.52485
1.50984
1.49578
1.48086
1.46482
1.44961
1.44141
1.4321
1.42138
1.40978
1.39789
1.38262
1.38266
1.37851
1.38452
1.39636
1.42375
1.46798
1.53082
1.60733
1.73998
1.73086
1.69048
1.67547
1.63768
1.63676
1.641
1.64574
1.6454
1.64386
1.63754
1.62851
1.61718
1.61213
1.60779
1.60312
1.59821
1.59501
1.59052
1.5846
1.57822
1.57215
1.56568
1.55842
1.5493
1.54483
1.54043
1.53584
1.53193
1.52751
1.52197
1.51272
1.51995
2.01907
1.9241
1.82968
1.80333
1.77851
1.75083
1.73382
1.72956
1.71686
1.69333
1.68104
1.68619
1.69856
1.73535
1.83231
2.04309
2.05864
2.01055
1.93294
1.91858
1.91577
1.90774
1.89771
1.88663
1.87702
1.8686
1.85979
1.85022
1.84042
1.8306
1.82023
1.809
1.79652
1.78227
1.76614
1.7481
1.72909
1.70911
1.68966
1.66984
1.6506
1.63244
1.61552
1.59829
1.58094
1.565
1.54996
1.53476
1.51991
1.50556
1.49014
1.47573
1.46048
1.44751
1.4404
1.43139
1.42126
1.41102
1.40061
1.3897
1.37454
1.37397
1.38011
1.38492
1.39955
1.42715
1.47905
1.55529
1.63397
1.73775
1.70918
1.68004
1.6527
1.6242
1.62725
1.63655
1.63689
1.63472
1.62897
1.61754
1.60192
1.59689
1.59431
1.59071
1.58793
1.584
1.57862
1.57195
1.56534
1.5581
1.5502
1.54305
1.5385
1.53387
1.52822
1.52203
1.51765
1.51247
1.50369
1.51115
2.22981
1.94525
1.87154
1.81344
1.78592
1.75411
1.72637
1.72002
1.71528
1.69666
1.69756
1.71247
1.75204
1.84185
2.02268
2.08059
2.02787
1.95188
1.92797
1.92579
1.91746
1.90663
1.89462
1.88352
1.87279
1.86341
1.85424
1.84501
1.83542
1.8255
1.81533
1.80455
1.79298
1.78017
1.76614
1.7505
1.7337
1.71567
1.6969
1.67742
1.65892
1.64097
1.62325
1.60565
1.58933
1.57325
1.55787
1.54295
1.52844
1.51379
1.49994
1.48603
1.47198
1.45881
1.44869
1.43928
1.42976
1.41967
1.40973
1.39928
1.3881
1.37314
1.37118
1.3718
1.37514
1.38053
1.40455
1.43993
1.49771
1.56868
1.68097
1.70404
1.66913
1.65802
1.62912
1.6181
1.62298
1.62488
1.6231
1.61846
1.60469
1.59107
1.58827
1.58595
1.58327
1.5793
1.57414
1.56704
1.5583
1.54926
1.54214
1.53662
1.53151
1.52721
1.52188
1.51526
1.51041
1.50504
1.49583
1.5028
2.44988
2.08132
1.94069
1.83558
1.78951
1.76265
1.73354
1.70019
1.70518
1.71214
1.72255
1.75877
1.85669
2.04059
2.10135
2.04659
1.97795
1.9393
1.93678
1.929
1.91861
1.90694
1.89521
1.88323
1.87148
1.86086
1.8515
1.84207
1.83232
1.82238
1.81202
1.80131
1.79018
1.77835
1.76561
1.75167
1.73638
1.71998
1.70248
1.68455
1.66617
1.64782
1.63054
1.61359
1.59688
1.58069
1.56452
1.54988
1.53576
1.52158
1.50825
1.49476
1.48252
1.47013
1.45713
1.44645
1.43625
1.42568
1.41595
1.40604
1.39548
1.38441
1.37142
1.36511
1.36861
1.36957
1.37329
1.38221
1.41056
1.45413
1.5191
1.59666
1.71463
1.70354
1.6672
1.64633
1.60809
1.60768
1.61443
1.61408
1.6103
1.60045
1.58907
1.58546
1.58137
1.57655
1.57054
1.56378
1.55644
1.54703
1.53558
1.52865
1.52331
1.51925
1.51489
1.50956
1.50325
1.49692
1.48793
1.49466
2.26786
2.21591
1.94072
1.87446
1.79846
1.76998
1.73934
1.70821
1.71607
1.73725
1.77902
1.87117
2.05403
2.13241
2.07131
2.00081
1.95323
1.95169
1.94471
1.93458
1.92243
1.90882
1.8967
1.88478
1.87251
1.86011
1.84937
1.83919
1.8292
1.81911
1.80868
1.79795
1.78697
1.77546
1.7634
1.7505
1.73673
1.72189
1.70617
1.68967
1.67256
1.65504
1.63825
1.62194
1.60596
1.59022
1.57512
1.56009
1.54615
1.53265
1.51967
1.50655
1.49438
1.48169
1.47123
1.46127
1.45207
1.44248
1.43321
1.42332
1.41277
1.39985
1.3895
1.38197
1.37531
1.36888
1.36961
1.36752
1.37516
1.39626
1.42614
1.47425
1.54961
1.64037
1.71831
1.68571
1.66265
1.6368
1.60139
1.60521
1.60964
1.60491
1.59484
1.5885
1.58301
1.57622
1.57117
1.56516
1.55741
1.54574
1.53115
1.52415
1.51978
1.5154
1.51039
1.50461
1.49863
1.49174
1.48291
1.48947
1.61122
2.42106
2.16081
1.88916
1.83926
1.78765
1.74389
1.73839
1.74916
1.79006
1.89557
2.08656
2.16825
2.10139
2.02834
1.96666
1.96595
1.96168
1.95193
1.9397
1.92419
1.91176
1.8992
1.88654
1.87402
1.86143
1.84898
1.83775
1.82677
1.81624
1.80562
1.79486
1.78393
1.77284
1.76145
1.74963
1.73719
1.72396
1.70983
1.69484
1.67926
1.66315
1.64695
1.63139
1.61585
1.60047
1.58537
1.57057
1.55617
1.54268
1.52996
1.5175
1.50518
1.49317
1.48174
1.472
1.46349
1.45487
1.44587
1.43623
1.42592
1.41369
1.40463
1.39635
1.38807
1.3818
1.3746
1.37334
1.3744
1.37694
1.38463
1.40631
1.45388
1.51609
1.59786
1.73026
1.72723
1.68781
1.66408
1.61956
1.60769
1.60877
1.60766
1.60253
1.59525
1.58637
1.58083
1.57351
1.56298
1.54761
1.53218
1.5267
1.52191
1.51589
1.5082
1.5049
1.50028
1.49365
1.48232
1.48781
1.24497
1.97822
2.38272
2.05754
1.91088
1.82007
1.7707
1.77972
1.81521
1.91889
2.11816
2.19198
2.12537
2.05029
1.98
1.97964
1.97791
1.96946
1.95669
1.94173
1.92576
1.91195
1.89855
1.88519
1.87228
1.85968
1.84709
1.83481
1.82361
1.81327
1.80307
1.79273
1.78221
1.7714
1.76032
1.74901
1.73735
1.72517
1.71237
1.69887
1.68475
1.67015
1.65518
1.64009
1.62502
1.61004
1.59504
1.58068
1.56654
1.5534
1.54091
1.52875
1.51651
1.5051
1.4932
1.48319
1.47458
1.46695
1.45847
1.4499
1.44085
1.43157
1.42173
1.41744
1.41184
1.40943
1.40586
1.4013
1.39518
1.38988
1.39123
1.40067
1.41441
1.45178
1.50742
1.58779
1.67525
1.76304
1.73127
1.69412
1.66709
1.63187
1.62031
1.61927
1.61512
1.60992
1.60277
1.59294
1.57973
1.55911
1.54229
1.53647
1.52967
1.52198
1.51528
1.5095
1.50396
1.49683
1.48474
1.48966
1.0626
1.36935
2.26389
2.18342
1.90798
1.82389
1.80136
1.83594
1.96399
2.21121
2.21619
2.15407
2.07702
2.01019
2.00216
2.00041
1.99166
1.97822
1.96255
1.94843
1.93433
1.91987
1.90566
1.89235
1.87926
1.86616
1.85321
1.84046
1.82825
1.81677
1.80596
1.79529
1.78463
1.7739
1.76304
1.75199
1.74074
1.7292
1.71726
1.70476
1.69187
1.67849
1.66483
1.6508
1.63654
1.62212
1.60799
1.59379
1.58086
1.56818
1.55675
1.54527
1.53425
1.5232
1.51304
1.5038
1.49724
1.49064
1.48423
1.47769
1.47112
1.46434
1.45922
1.45546
1.45165
1.4491
1.44592
1.44371
1.44122
1.43739
1.43023
1.43659
1.44766
1.45962
1.47815
1.52676
1.58718
1.6712
1.82433
1.80419
1.75311
1.7301
1.69553
1.65805
1.6535
1.64728
1.63772
1.62506
1.60852
1.58927
1.56684
1.55741
1.54739
1.54065
1.53509
1.52706
1.51764
1.50598
1.49234
1.49697
1.01128
1.07023
1.53496
2.29707
2.07966
1.86296
1.87888
2.00917
2.30541
2.24532
2.17537
2.0752
2.02306
2.02089
2.02102
2.01386
2.00037
1.98362
1.96934
1.95562
1.94114
1.92641
1.91291
1.8994
1.88579
1.87213
1.85857
1.84509
1.8322
1.81974
1.80823
1.79728
1.78649
1.77577
1.76512
1.75439
1.74355
1.73249
1.72119
1.70973
1.698
1.68614
1.6739
1.66148
1.64863
1.63557
1.6223
1.61012
1.59793
1.58783
1.57817
1.56874
1.55967
1.55127
1.54206
1.5368
1.53288
1.52842
1.52378
1.51926
1.51461
1.51065
1.50896
1.50827
1.50844
1.50901
1.50831
1.50653
1.5036
1.49852
1.49113
1.48798
1.48503
1.49286
1.49487
1.50563
1.53316
1.58668
1.66192
1.78188
1.85596
1.82075
1.77933