/*--------------------------------*- C++ -*----------------------------------*\
| =========                 |                                                 |
| \\      /  F ield         | OpenFOAM: The Open Source CFD Toolbox           |
|  \\    /   O peration     | Version:  v2106                                 |
|   \\  /    A nd           | Website:  www.openfoam.com                      |
|    \\/     M anipulation  |                                                 |
\*---------------------------------------------------------------------------*/
FoamFile
{
    version     2.0;
    format      ascii;
    arch        "LSB;label=32;scalar=64";
    class       volVectorField;
    location    "6";
    object      U;
}
// * * * * * * * * * * * * * * * * * * * * * * * * * * * * * * * * * * * * * //

dimensions      [0 1 -1 0 0 0 0];

internalField   nonuniform List<vector> 
5250
(
(3 1.13365e-14 0)
(3 -9.21307e-14 0)
(3 -3.4549e-13 0)
(3 -6.44912e-12 0)
(3 -2.65258e-11 0)
(3 -3.13239e-10 0)
(3 1.47526e-09 0)
(3 -1.65662e-09 0)
(3.00001 8.12978e-08 0)
(2.99995 2.93008e-07 0)
(3.00054 5.62064e-06 0)
(2.99892 4.03616e-05 0)
(3.02889 0.000465988 0)
(3.01999 0.00311735 0)
(2.4674 0.00762272 0)
(0.715049 0.0335075 0)
(0.520251 0.0166542 0)
(0.545832 0.0200227 0)
(0.489252 0.0221335 0)
(0.414369 0.0215425 0)
(0.359506 0.0252231 0)
(0.285646 0.0265642 0)
(0.212355 0.0304028 0)
(0.131724 0.0330908 0)
(0.0486867 0.0414962 0)
(3 1.12314e-13 0)
(3 -8.59881e-13 0)
(3 -4.99111e-13 0)
(3 -2.34482e-11 0)
(3 -2.9231e-10 0)
(3 -1.75869e-09 0)
(3 7.3633e-10 0)
(3 1.07455e-08 0)
(3.00001 1.65742e-07 0)
(2.99995 1.46862e-06 0)
(3.00052 1.30979e-05 0)
(2.99899 0.000134463 0)
(3.02796 0.00123737 0)
(3.02206 0.00951319 0)
(2.47788 0.0254287 0)
(0.729006 0.103074 0)
(0.507232 0.0488905 0)
(0.541223 0.0609424 0)
(0.484023 0.0658857 0)
(0.410476 0.0712588 0)
(0.355467 0.0804695 0)
(0.279974 0.0892402 0)
(0.207214 0.0948907 0)
(0.123928 0.101787 0)
(0.0435997 0.108598 0)
(3 3.97505e-15 0)
(3 4.73872e-13 0)
(3 2.19836e-12 0)
(3 3.62397e-11 0)
(3 2.02595e-10 0)
(3 -3.47482e-09 0)
(3 1.20979e-08 0)
(3 -9.65268e-08 0)
(3.00001 4.96546e-07 0)
(2.99995 -2.53529e-06 0)
(3.00054 2.64107e-05 0)
(2.99877 5.0172e-05 0)
(3.02795 0.00226074 0)
(3.0271 0.0169013 0)
(2.50646 0.0460623 0)
(0.777286 0.178896 0)
(0.488405 0.0816524 0)
(0.540185 0.0998052 0)
(0.48046 0.10772 0)
(0.406031 0.113656 0)
(0.352046 0.132452 0)
(0.28001 0.142532 0)
(0.206962 0.157053 0)
(0.126432 0.167164 0)
(0.0426077 0.180079 0)
(3 -4.18038e-14 0)
(3 1.14767e-12 0)
(3 2.91505e-12 0)
(3 7.84716e-11 0)
(3 4.71725e-10 0)
(3 -1.80532e-09 0)
(3 5.74726e-08 0)
(3 -9.83565e-08 0)
(3 1.13192e-06 0)
(3.00001 -1.24458e-06 0)
(3.00015 7.69611e-06 0)
(3.00061 0.000273854 0)
(3.0148 -0.00551549 0)
(3.03724 0.0246045 0)
(2.54886 0.0669371 0)
(0.84669 0.263302 0)
(0.455156 0.118301 0)
(0.538158 0.142957 0)
(0.476359 0.153133 0)
(0.402376 0.163949 0)
(0.351956 0.184859 0)
(0.280927 0.204579 0)
(0.210777 0.220184 0)
(0.126113 0.23846 0)
(0.0453411 0.250122 0)
(3 5.48251e-14 0)
(3 -2.5847e-13 0)
(3 1.46598e-12 0)
(3 1.09053e-11 0)
(3 -7.35579e-11 0)
(3 7.06576e-10 0)
(3 4.11015e-09 0)
(3 4.51921e-08 0)
(3 5.33054e-07 0)
(3.00001 3.48991e-06 0)
(3.00009 3.838e-05 0)
(3.00081 0.000374234 0)
(3.00947 0.00189701 0)
(3.05194 0.0305642 0)
(2.61067 0.0902313 0)
(0.954775 0.36201 0)
(0.415277 0.146349 0)
(0.534195 0.179031 0)
(0.470697 0.192356 0)
(0.401752 0.202589 0)
(0.352323 0.235218 0)
(0.290461 0.253656 0)
(0.213741 0.285553 0)
(0.135758 0.305072 0)
(0.0444224 0.32538 0)
(3 3.76104e-13 0)
(3 -4.24135e-13 0)
(3 4.52693e-12 0)
(3 -3.11322e-11 0)
(3 2.43019e-10 0)
(3 -4.72229e-10 0)
(3 1.42759e-08 0)
(3 5.13869e-10 0)
(3 8.33844e-07 0)
(3.00001 4.20943e-07 0)
(3.00006 5.0198e-05 0)
(3.0009 0.0001722 0)
(3.00623 0.00306105 0)
(3.06533 0.0316547 0)
(2.69477 0.0933158 0)
(1.13717 0.463708 0)
(0.368487 0.195095 0)
(0.531657 0.218634 0)
(0.459373 0.234235 0)
(0.394229 0.251735 0)
(0.354014 0.280273 0)
(0.285445 0.319185 0)
(0.22733 0.348327 0)
(0.1343 0.383643 0)
(0.0525064 0.402891 0)
(3 9.33991e-15 0)
(3 1.05598e-13 0)
(3 1.0573e-12 0)
(3 9.98084e-12 0)
(3 8.70078e-11 0)
(3 7.97321e-10 0)
(3 7.46376e-09 0)
(3 6.7314e-08 0)
(3 6.00119e-07 0)
(3.00002 5.53882e-06 0)
(3 4.8732e-05 0)
(3.00108 -0.000655683 0)
(3.00309 0.00356316 0)
(3.06941 0.028538 0)
(2.78635 0.0723638 0)
(1.44523 0.563123 0)
(0.361482 0.245236 0)
(0.544201 0.255575 0)
(0.465702 0.271619 0)
(0.406284 0.279045 0)
(0.355992 0.332192 0)
(0.316964 0.357558 0)
(0.238601 0.414315 0)
(0.161337 0.453045 0)
(0.0688692 0.491436 0)
(3 -3.64256e-13 0)
(3 4.43144e-13 0)
(3 -1.69227e-12 0)
(3 2.25438e-11 0)
(3 -2.534e-11 0)
(3 6.68238e-10 0)
(3 2.09378e-09 0)
(3 1.85794e-08 0)
(3 5.92983e-07 0)
(3.00001 -5.0609e-06 0)
(3.00004 0.000120386 0)
(3.00047 -0.0021662 0)
(3.0009 0.00306425 0)
(3.06725 0.0231489 0)
(2.85648 0.0399935 0)
(1.86569 0.619203 0)
(0.408724 0.347628 0)
(0.580478 0.310263 0)
(0.504378 0.312256 0)
(0.408246 0.334458 0)
(0.394137 0.356599 0)
(0.31958 0.426681 0)
(0.254709 0.486459 0)
(0.182096 0.539879 0)
(0.065444 0.601363 0)
(3 -2.72896e-14 0)
(3 3.36072e-13 0)
(3 -1.19949e-12 0)
(3 5.26473e-12 0)
(3 -1.28111e-11 0)
(3 -5.14749e-10 0)
(3 8.40984e-09 0)
(3 1.87129e-08 0)
(3 1.1823e-07 0)
(3 2.3019e-06 0)
(3.00004 1.8633e-05 0)
(3.00027 0.000206646 0)
(2.99939 0.00203873 0)
(3.06015 0.0181851 0)
(2.90748 0.0336769 0)
(2.17385 0.557268 0)
(0.553867 0.44574 0)
(0.640718 0.386392 0)
(0.567236 0.380802 0)
(0.470593 0.365678 0)
(0.421184 0.415573 0)
(0.361648 0.475049 0)
(0.314696 0.54369 0)
(0.234558 0.617476 0)
(0.140623 0.729742 0)
(3 -1.51946e-14 0)
(3 -3.18144e-13 0)
(3 -1.90576e-12 0)
(3 7.49887e-12 0)
(3 -7.21388e-11 0)
(3 7.79704e-11 0)
(3 -5.03765e-09 0)
(3 -2.21435e-08 0)
(3 3.75965e-07 0)
(3.00002 9.46503e-07 0)
(2.99992 2.37727e-05 0)
(3.00085 0.000107639 0)
(2.9985 0.00149473 0)
(3.04946 0.014784 0)
(2.95566 0.0559304 0)
(2.35004 0.435026 0)
(0.664661 0.548898 0)
(0.712947 0.456884 0)
(0.650549 0.443069 0)
(0.549682 0.438467 0)
(0.473278 0.472105 0)
(0.425005 0.527451 0)
(0.357543 0.622116 0)
(0.304966 0.727483 0)
(0.0943739 0.964016 0)
(3 3.66874e-14 0)
(3 -2.37624e-14 0)
(3 1.70387e-12 0)
(3 5.43927e-12 0)
(3 1.2495e-10 0)
(3 7.92604e-10 0)
(3 -2.43346e-09 0)
(3 3.73791e-08 0)
(3 5.41695e-09 0)
(3.00002 2.202e-06 0)
(2.99991 8.41862e-06 0)
(3.00085 0.000157162 0)
(2.99772 0.0010701 0)
(3.04224 0.0129725 0)
(3.00389 0.0689031 0)
(2.50176 0.34786 0)
(0.809052 0.600477 0)
(0.733979 0.503826 0)
(0.704012 0.515057 0)
(0.652716 0.505551 0)
(0.542632 0.542613 0)
(0.507022 0.588807 0)
(0.440312 0.69307 0)
(0.478412 0.822423 0)
(0.416525 1.14768 0)
(3 -1.82413e-13 0)
(3 2.37884e-13 0)
(3 6.36918e-12 0)
(3 -8.4843e-12 0)
(3 1.61205e-10 0)
(3 -4.67579e-10 0)
(3 4.34415e-09 0)
(3 1.36206e-07 0)
(3 -7.38262e-08 0)
(3 2.44789e-06 0)
(3.00001 4.92257e-06 0)
(3.00016 1.50547e-05 0)
(3.00064 0.00106681 0)
(3.01507 -0.0130445 0)
(3.03902 0.0733525 0)
(2.64547 0.288485 0)
(1.01623 0.670855 0)
(0.691216 0.51611 0)
(0.743324 0.544832 0)
(0.71069 0.593681 0)
(0.638061 0.611882 0)
(0.609581 0.647467 0)
(0.557329 0.741751 0)
(0.688427 0.852516 0)
(0.670177 1.04764 0)
(3 6.38399e-15 0)
(3 1.27013e-14 0)
(3 4.15001e-13 0)
(3 8.87185e-13 0)
(3 1.70802e-11 0)
(3 3.70735e-10 0)
(3 1.30478e-09 0)
(3 2.27886e-08 0)
(3 1.28972e-07 0)
(2.99999 1.54411e-06 0)
(3.00006 1.10195e-05 0)
(2.99975 0.000114682 0)
(3.00255 0.000882023 0)
(3.00203 0.00871057 0)
(3.07195 0.060181 0)
(2.79613 0.241979 0)
(1.3573 0.759327 0)
(0.620021 0.518604 0)
(0.719707 0.550947 0)
(0.75287 0.629499 0)
(0.723722 0.672854 0)
(0.707928 0.705667 0)
(0.68837 0.758643 0)
(0.775651 0.858975 0)
(0.872201 0.908176 0)
(3 -1.27921e-14 0)
(3 7.72608e-14 0)
(3 4.06839e-13 0)
(3 6.9749e-12 0)
(3 3.32463e-11 0)
(3 5.31333e-10 0)
(3 3.74197e-09 0)
(3 1.42417e-11 0)
(3 1.61065e-07 0)
(3 2.83418e-07 0)
(3.00002 9.92464e-06 0)
(2.99996 4.44994e-05 0)
(3.001 -0.00331148 0)
(3.00106 0.00473677 0)
(3.06865 0.0397156 0)
(2.92691 0.146898 0)
(1.97992 0.86561 0)
(0.636598 0.574126 0)
(0.727356 0.569842 0)
(0.766718 0.624339 0)
(0.759933 0.693671 0)
(0.786862 0.732203 0)
(0.795477 0.780067 0)
(0.864354 0.835108 0)
(0.948964 0.867651 0)
(3 -4.47647e-15 0)
(3 2.43156e-14 0)
(3 2.20545e-13 0)
(3 2.84513e-12 0)
(3 2.21502e-11 0)
(3 -9.1313e-11 0)
(3 7.94546e-10 0)
(3 4.58418e-09 0)
(3 5.46843e-08 0)
(3 3.95302e-07 0)
(3 4.07137e-06 0)
(3.00007 3.38855e-05 0)
(2.99992 9.72021e-05 0)
(2.99904 0.00277168 0)
(3.05288 0.0250858 0)
(2.9758 0.0907169 0)
(2.38673 0.75067 0)
(0.824618 0.677742 0)
(0.787402 0.603645 0)
(0.796627 0.629241 0)
(0.80276 0.689193 0)
(0.831798 0.738864 0)
(0.867523 0.786907 0)
(0.93262 0.832736 0)
(1.01325 0.848882 0)
(3 2.64003e-15 0)
(3 2.55638e-14 0)
(3 -1.62456e-14 0)
(3 1.02391e-12 0)
(3 1.92125e-12 0)
(3 5.27901e-11 0)
(3 1.85398e-10 0)
(3 3.14013e-09 0)
(3 1.43809e-08 0)
(3 2.27463e-07 0)
(3.00001 1.32367e-06 0)
(2.99995 1.72743e-05 0)
(3.00059 0.00011857 0)
(2.9986 0.00145079 0)
(3.03501 0.0183099 0)
(3.01925 0.105451 0)
(2.64506 0.591255 0)
(1.10904 0.786398 0)
(0.842425 0.65928 0)
(0.843608 0.659213 0)
(0.849232 0.696591 0)
(0.877135 0.74123 0)
(0.923382 0.783359 0)
(0.987255 0.826545 0)
(1.07294 0.832331 0)
(3 -1.76235e-14 0)
(3 5.05339e-14 0)
(3 -4.12857e-15 0)
(3 1.09123e-12 0)
(3 2.67795e-12 0)
(3 9.33586e-12 0)
(3 1.10772e-09 0)
(3 -2.72593e-09 0)
(3 4.2635e-08 0)
(3 -2.69497e-08 0)
(3 2.06079e-06 0)
(3.00001 6.30235e-06 0)
(3.0001 0.000105175 0)
(3.00065 0.000855982 0)
(3.00894 0.00735401 0)
(3.06685 0.0868014 0)
(2.85596 0.446188 0)
(1.55855 0.882908 0)
(0.849932 0.691332 0)
(0.874176 0.68842 0)
(0.891902 0.716094 0)
(0.917998 0.752944 0)
(0.963115 0.785184 0)
(1.02574 0.817062 0)
(1.10544 0.826257 0)
(3 4.17784e-16 0)
(3 -1.71101e-15 0)
(3 -1.15735e-14 0)
(3 3.54091e-13 0)
(3 7.91734e-13 0)
(3 1.74455e-11 0)
(3 6.32699e-11 0)
(3 8.29885e-10 0)
(3 1.77922e-08 0)
(3 1.06306e-07 0)
(3 1.24901e-06 0)
(3.00002 9.04535e-06 0)
(2.99993 9.19502e-05 0)
(3.00113 0.000723839 0)
(2.99968 0.0068865 0)
(3.07116 0.0530538 0)
(2.99339 0.272767 0)
(2.1872 0.98942 0)
(0.917344 0.761405 0)
(0.918468 0.719564 0)
(0.934167 0.727255 0)
(0.9582 0.749822 0)
(0.998269 0.773962 0)
(1.05964 0.797543 0)
(1.13019 0.813433 0)
(3 1.30265e-16 0)
(3 2.41332e-16 0)
(3 5.9929e-14 0)
(3 2.18969e-13 0)
(3 4.30008e-12 0)
(3 2.55582e-11 0)
(3 1.09612e-11 0)
(3 9.95696e-10 0)
(3 1.81067e-09 0)
(3 6.56749e-08 0)
(3 2.7261e-07 0)
(3.00002 4.63105e-06 0)
(2.99994 2.85419e-05 0)
(3.0008 0.000349567 0)
(2.99914 0.00267451 0)
(3.0458 0.0285718 0)
(3.03879 0.177012 0)
(2.62344 0.815564 0)
(1.20303 0.842206 0)
(0.980432 0.756082 0)
(0.981515 0.740829 0)
(1.00096 0.753121 0)
(1.03409 0.77191 0)
(1.08802 0.789508 0)
(1.15334 0.802046 0)
(3 -6.95045e-17 0)
(3 7.1041e-15 0)
(3 6.00179e-14 0)
(3 1.20696e-14 0)
(3 2.48935e-12 0)
(3 7.92807e-12 0)
(3 1.63468e-10 0)
(3 9.9141e-10 0)
(3 -9.46788e-10 0)
(3 4.61702e-08 0)
(3 1.0146e-07 0)
(3 2.47651e-06 0)
(3.00001 1.31444e-05 0)
(3.00013 0.000161071 0)
(3.00091 0.00126207 0)
(3.0105 0.0118855 0)
(3.08859 0.123207 0)
(2.90213 0.622786 0)
(1.68367 0.930516 0)
(1.01196 0.790118 0)
(1.02208 0.762333 0)
(1.03989 0.7684 0)
(1.06997 0.778651 0)
(1.11648 0.788595 0)
(1.17424 0.797388 0)
(3 5.18829e-17 0)
(3 1.05457e-15 0)
(3 4.77803e-15 0)
(3 6.6455e-14 0)
(3 3.46423e-13 0)
(3 4.7907e-12 0)
(3 2.48234e-11 0)
(3 -5.8016e-10 0)
(3 1.93874e-09 0)
(3 1.99213e-08 0)
(3 1.59004e-07 0)
(3 1.48113e-06 0)
(3.00003 1.22943e-05 0)
(2.99991 0.000110729 0)
(3.00142 0.000930411 0)
(2.99888 0.00816522 0)
(3.08487 0.0681853 0)
(3.04701 0.393098 0)
(2.32266 1.0376 0)
(1.1231 0.848501 0)
(1.06645 0.812692 0)
(1.08002 0.785063 0)
(1.10292 0.785707 0)
(1.1439 0.788353 0)
(1.19658 0.79238 0)
(3 1.67764e-17 0)
(3 1.12515e-15 0)
(3 -7.07093e-16 0)
(3 8.26611e-14 0)
(3 -2.99162e-13 0)
(3 4.70674e-12 0)
(3 1.9998e-11 0)
(3 2.89673e-10 0)
(3 2.64947e-09 0)
(3 -3.77952e-09 0)
(3 1.01107e-07 0)
(3 1.07371e-07 0)
(3 4.94107e-06 0)
(3.00003 2.50365e-05 0)
(3.00028 0.000237001 0)
(3.00178 0.00274932 0)
(3.02402 0.0125284 0)
(3.12077 0.215598 0)
(2.79298 0.860371 0)
(1.49407 0.927448 0)
(1.13007 0.838495 0)
(1.12594 0.798919 0)
(1.14425 0.793795 0)
(1.17724 0.79234 0)
(1.22162 0.79271 0)
(3 5.27161e-18 0)
(3 5.33363e-16 0)
(3 1.82577e-15 0)
(3 1.63189e-14 0)
(3 9.15871e-14 0)
(3 7.79498e-13 0)
(3 7.89306e-12 0)
(3 4.34e-11 0)
(3 5.77545e-10 0)
(3 4.2359e-09 0)
(3 4.34538e-08 0)
(3 3.59089e-07 0)
(2.99999 3.1566e-06 0)
(3.00006 2.61991e-05 0)
(2.99981 0.000228795 0)
(3.00259 0.00187603 0)
(2.99863 0.0162256 0)
(3.13376 0.12362 0)
(3.05176 0.617261 0)
(2.125 1.00948 0)
(1.18852 0.875574 0)
(1.16639 0.827253 0)
(1.17959 0.816965 0)
(1.20739 0.807782 0)
(1.24635 0.801186 0)
(3 -1.25132e-18 0)
(3 4.82528e-16 0)
(3 2.23419e-15 0)
(3 3.50279e-14 0)
(3 2.21804e-13 0)
(3 1.81286e-13 0)
(3 7.89815e-12 0)
(3 2.76185e-11 0)
(3 4.02621e-10 0)
(3 5.13933e-09 0)
(3 -1.17215e-09 0)
(3 1.64019e-07 0)
(3 1.31152e-07 0)
(3.00001 8.09459e-06 0)
(3.00004 5.21045e-05 0)
(3.0005 0.000235324 0)
(3.00256 0.00551112 0)
(3.04219 0.00633674 0)
(3.14757 0.355382 0)
(2.70441 1.01776 0)
(1.47078 0.951253 0)
(1.22465 0.884873 0)
(1.21927 0.833045 0)
(1.23857 0.823425 0)
(1.27145 0.812375 0)
(3 3.39453e-16 0)
(3 -1.35885e-15 0)
(3 1.1543e-15 0)
(3 -6.012e-15 0)
(3 3.95842e-14 0)
(3 7.90527e-14 0)
(3 1.77347e-12 0)
(3 1.60225e-11 0)
(3 1.20663e-10 0)
(3 1.08881e-09 0)
(3 8.51402e-09 0)
(3 7.50392e-08 0)
(3 5.99814e-07 0)
(2.99999 5.20618e-06 0)
(3.00012 4.16694e-05 0)
(2.99953 0.000358948 0)
(3.00466 0.00280882 0)
(2.99453 0.0240061 0)
(3.18629 0.178658 0)
(3.04183 0.766724 0)
(2.03328 1.02746 0)
(1.31071 0.917866 0)
(1.25993 0.872128 0)
(1.28063 0.837799 0)
(1.30233 0.823267 0)
(3 -1.08233e-17 0)
(3 3.8565e-16 0)
(3 3.33266e-16 0)
(3 2.0895e-15 0)
(3 1.76932e-14 0)
(3 7.40923e-14 0)
(3 8.29307e-13 0)
(3 1.89616e-14 0)
(3 1.19293e-11 0)
(3 5.02188e-10 0)
(3 1.60401e-09 0)
(3 2.36964e-08 0)
(3 3.68188e-07 0)
(3 4.24296e-08 0)
(3.00001 1.20034e-05 0)
(3.00005 7.55445e-05 0)
(3.00073 -3.36586e-05 0)
(3.00271 0.00735804 0)
(3.05965 0.0214958 0)
(3.21057 0.444787 0)
(2.68147 1.06628 0)
(1.54698 0.966289 0)
(1.3245 0.92715 0)
(1.31481 0.85689 0)
(1.33136 0.844059 0)
(3 1.02537e-16 0)
(3 1.32521e-17 0)
(3 2.23347e-16 0)
(3 7.83858e-16 0)
(3 1.58753e-15 0)
(3 5.26402e-14 0)
(3 3.00208e-13 0)
(3 2.7313e-12 0)
(3 2.03426e-11 0)
(3 1.91917e-10 0)
(3 1.62709e-09 0)
(3 1.27664e-08 0)
(3 1.0812e-07 0)
(3 7.15671e-07 0)
(2.99998 6.93242e-06 0)
(3.00019 5.23585e-05 0)
(2.99923 0.000450628 0)
(3.00609 0.00333205 0)
(2.99477 0.0286744 0)
(3.22763 0.23171 0)
(3.06986 0.85083 0)
(2.09154 1.04577 0)
(1.41366 0.951681 0)
(1.35445 0.900971 0)
(1.37076 0.856449 0)
(3 8.47508e-17 0)
(3 2.74228e-16 0)
(3 2.4003e-16 0)
(3 1.88372e-15 0)
(3 1.74987e-15 0)
(3 -2.58415e-14 0)
(3 2.11356e-13 0)
(3 2.53068e-12 0)
(3 3.62084e-11 0)
(3 1.26265e-11 0)
(3 1.33331e-09 0)
(3 1.26425e-09 0)
(3 6.78331e-08 0)
(3 5.5563e-07 0)
(3 5.02042e-07 0)
(3.00002 -9.05005e-06 0)
(3.00005 0.000138649 0)
(3.00088 -0.00280588 0)
(3.00201 0.00902934 0)
(3.07558 0.028734 0)
(3.26155 0.490899 0)
(2.74998 1.08072 0)
(1.66189 0.986594 0)
(1.42253 0.951686 0)
(1.40429 0.87432 0)
(3 7.3977e-17 0)
(3 -6.97605e-17 0)
(3 1.11052e-16 0)
(3 -1.504e-16 0)
(3 7.07307e-16 0)
(3 9.61249e-15 0)
(3 6.89633e-14 0)
(3 5.99156e-13 0)
(3 4.60282e-12 0)
(3 3.53097e-11 0)
(3 1.51443e-10 0)
(3 2.20244e-09 0)
(3 1.67518e-08 0)
(3 1.37528e-07 0)
(3 9.35158e-07 0)
(3 -5.97357e-06 0)
(3.00001 6.00532e-05 0)
(2.99899 0.000494263 0)
(3.00608 0.00345108 0)
(2.99218 0.0304777 0)
(3.25504 0.248377 0)
(3.13546 0.855116 0)
(2.23944 1.06701 0)
(1.51988 0.969395 0)
(1.44925 0.927152 0)
(3 5.74199e-17 0)
(3 -3.77115e-16 0)
(3 -6.57062e-16 0)
(3 -2.34699e-15 0)
(3 5.09072e-15 0)
(3 -6.87436e-15 0)
(3 3.74995e-14 0)
(3 6.68909e-14 0)
(3 2.08634e-12 0)
(3 1.02875e-11 0)
(3 8.67181e-11 0)
(3 6.60991e-10 0)
(3 4.22394e-09 0)
(3 4.67402e-08 0)
(3 2.98254e-07 0)
(3 2.61977e-06 0)
(3.00001 3.29957e-05 0)
(3.00005 -2.89683e-05 0)
(3.0008 -8.38906e-05 0)
(3.00305 0.00708441 0)
(3.06924 0.0580853 0)
(3.37863 0.497071 0)
(2.91687 1.02973 0)
(1.83748 0.993523 0)
(1.54917 0.968876 0)
(3 5.13189e-17 0)
(3 5.4327e-17 0)
(3 5.26123e-17 0)
(3 3.61467e-17 0)
(3 3.58348e-16 0)
(3 1.44305e-16 0)
(3 7.53519e-15 0)
(3 2.15492e-14 0)
(3 3.77421e-13 0)
(3 1.09301e-12 0)
(3 3.31941e-11 0)
(3 3.89774e-11 0)
(3 1.90555e-09 0)
(3 1.89574e-09 0)
(3 1.19853e-07 0)
(3 1.82829e-07 0)
(3 6.16324e-06 0)
(3.00005 5.53944e-05 0)
(2.99996 0.000488508 0)
(3.0016 -0.00126699 0)
(3.00673 0.0334533 0)
(3.17136 -0.149277 0)
(3.27217 0.853479 0)
(2.47844 1.10248 0)
(1.62042 0.964254 0)
(3 2.06881e-33 0)
(3 -4.97707e-17 0)
(3 1.5322e-16 0)
(3 1.70368e-16 0)
(3 6.03746e-16 0)
(3 -3.35246e-16 0)
(3 1.63137e-15 0)
(3 1.84726e-14 0)
(3 1.88111e-13 0)
(3 1.338e-12 0)
(3 1.10451e-11 0)
(3 4.50665e-11 0)
(3 5.0016e-10 0)
(3 4.92727e-09 0)
(3 3.81634e-08 0)
(3 2.81591e-07 0)
(3 2.08031e-06 0)
(3.00002 -2.36466e-05 0)
(3.00005 9.50381e-05 0)
(2.99779 0.000995103 0)
(3.02228 0.007582 0)
(2.93476 0.0628254 0)
(3.40287 0.441533 0)
(3.09857 1.09058 0)
(2.04224 1.06171 0)
(3 -1.02638e-16 0)
(3 -2.80645e-16 0)
(3 -1.06071e-16 0)
(3 -4.23972e-16 0)
(3 -3.26096e-16 0)
(3 -4.2787e-16 0)
(3 6.5244e-16 0)
(3 -1.6857e-14 0)
(3 1.21246e-13 0)
(3 5.4229e-14 0)
(3 5.83491e-12 0)
(3 3.00131e-11 0)
(3 -1.88837e-10 0)
(3 2.22885e-09 0)
(3 8.47263e-09 0)
(3 1.79051e-08 0)
(3 8.53908e-07 0)
(2.99999 7.92179e-06 0)
(3.00008 4.78133e-05 0)
(2.9998 -7.79091e-05 0)
(3.00321 0.002564 0)
(3.00087 0.00796181 0)
(3.14461 0.0164774 0)
(3.37819 0.673077 0)
(2.73395 1.06614 0)
(3 -2.56664e-16 0)
(3 5.15608e-17 0)
(3 -3.59149e-16 0)
(3 -4.67568e-16 0)
(3 -7.69919e-16 0)
(3 -7.97684e-16 0)
(3 -2.08572e-15 0)
(3 2.543e-15 0)
(3 1.43608e-14 0)
(3 1.4478e-13 0)
(3 1.3018e-12 0)
(3 5.57115e-12 0)
(3 8.51594e-11 0)
(3 5.75055e-10 0)
(3 4.00468e-09 0)
(3 3.45672e-08 0)
(3 2.10013e-07 0)
(3 -1.10815e-06 0)
(3 1.00293e-05 0)
(3.0001 6.55389e-05 0)
(2.99961 0.00083253 0)
(3.00822 0.00543481 0)
(2.98194 0.0482295 0)
(3.3478 0.364801 0)
(3.19992 0.965072 0)
(3 -6.04381e-17 0)
(3 1.53957e-16 0)
(3 2.56595e-16 0)
(3 2.56595e-16 0)
(3 2.56796e-16 0)
(3 3.59462e-16 0)
(3 4.76812e-16 0)
(3 3.12843e-16 0)
(3 7.65088e-15 0)
(3 5.23387e-14 0)
(3 -1.38709e-13 0)
(3 3.39768e-12 0)
(3 2.94404e-11 0)
(3 2.32623e-10 0)
(3 2.44527e-10 0)
(3 5.93442e-09 0)
(3 4.91908e-08 0)
(3 4.60785e-07 0)
(3 1.75456e-06 0)
(3.00001 1.28851e-05 0)
(3.0001 0.000168755 0)
(3.00122 -0.000630557 0)
(3.00347 0.00885438 0)
(3.10845 0.0631669 0)
(3.43128 0.551282 0)
(3 5.13189e-17 0)
(3 3.84822e-17 0)
(3 2.05276e-16 0)
(3 2.45884e-16 0)
(3 5.13087e-16 0)
(3 5.75046e-16 0)
(3 8.78206e-16 0)
(3 1.31047e-15 0)
(3 6.11062e-16 0)
(3 1.00866e-14 0)
(3 4.14376e-14 0)
(3 6.1821e-13 0)
(3 3.66532e-12 0)
(3 7.85623e-12 0)
(3 1.01414e-10 0)
(3 -2.62415e-10 0)
(3 2.94124e-09 0)
(3 -1.20959e-07 0)
(3 7.34536e-07 0)
(2.99999 9.47292e-06 0)
(3.00012 7.83685e-05 0)
(2.99977 0.000651097 0)
(3.00189 -0.0071804 0)
(3.00563 0.0394514 0)
(3.20736 -0.0932747 0)
(3 1.53957e-16 0)
(3 1.53957e-16 0)
(3 6.45709e-18 0)
(3 2.04334e-16 0)
(3 2.12608e-16 0)
(3 3.44859e-16 0)
(3 5.49566e-16 0)
(3 6.84468e-16 0)
(3 1.12712e-15 0)
(3 1.84755e-15 0)
(3 2.70995e-15 0)
(3 4.7012e-14 0)
(3 -5.24108e-12 0)
(3 5.25322e-11 0)
(3 -4.51687e-10 0)
(3 8.36072e-10 0)
(3 6.52886e-09 0)
(3 -1.58156e-07 0)
(3 5.75194e-07 0)
(3 -1.6624e-07 0)
(3.00004 1.67803e-05 0)
(2.99999 7.80983e-05 0)
(2.99778 0.0009778 0)
(3.01377 0.00716646 0)
(2.93674 0.0613111 0)
(3 -5.13189e-17 0)
(3 -1.62553e-17 0)
(3 8.95154e-17 0)
(3 -2.03221e-16 0)
(3 2.5549e-18 0)
(3 -2.20486e-16 0)
(3 -1.30816e-16 0)
(3 2.24565e-16 0)
(3 -1.0904e-16 0)
(3 2.28912e-15 0)
(3 1.18665e-14 0)
(3 3.6499e-14 0)
(3 2.49776e-13 0)
(3 2.14845e-12 0)
(3 1.56193e-11 0)
(3 -6.25214e-10 0)
(3 5.96452e-10 0)
(3 1.59471e-09 0)
(3 4.78378e-08 0)
(3 1.13123e-06 0)
(3 1.04553e-05 0)
(3.00008 6.38178e-05 0)
(2.99986 4.08628e-05 0)
(3.00262 0.00270185 0)
(3.00215 0.00710889 0)
(3 -3.72148e-113 0)
(3 5.13189e-17 0)
(3 -4.21275e-17 0)
(3 1.53957e-16 0)
(3 2.93071e-16 0)
(3 3.62214e-16 0)
(3 2.57888e-16 0)
(3 2.14114e-16 0)
(3 5.85713e-17 0)
(3 -3.78177e-16 0)
(3 -1.25944e-15 0)
(3 -9.39795e-15 0)
(3 -2.97099e-13 0)
(3 -7.47155e-13 0)
(3 -1.70512e-11 0)
(3 4.63619e-11 0)
(3 4.08956e-10 0)
(3 1.60276e-09 0)
(3 2.7568e-08 0)
(3 -2.00906e-07 0)
(3 1.30667e-06 0)
(3.00002 -3.56361e-06 0)
(3.00001 5.68739e-05 0)
(3.00044 0.00175371 0)
(3.00216 -0.00932724 0)
(3 1.12273e-16 0)
(3 3.07426e-16 0)
(3 3.26296e-16 0)
(3 5.97444e-16 0)
(3 2.05276e-16 0)
(3 3.65209e-17 0)
(3 -2.05273e-16 0)
(3 -4.10518e-16 0)
(3 -6.61566e-16 0)
(3 -9.79482e-16 0)
(3 -1.50318e-16 0)
(3 1.83503e-15 0)
(3 3.52618e-14 0)
(3 -3.79086e-13 0)
(3 -4.29739e-13 0)
(3 -3.64287e-11 0)
(3 2.56169e-11 0)
(3 1.0652e-09 0)
(3 8.48018e-09 0)
(3 8.29284e-08 0)
(3 5.4674e-07 0)
(3 4.41063e-06 0)
(3.00001 6.2076e-06 0)
(3.00029 0.000130947 0)
(2.99957 0.000848796 0)
(3 -9.80421e-17 0)
(3 -2.09871e-16 0)
(3 -3.07913e-16 0)
(3 -4.10551e-16 0)
(3 -5.64508e-16 0)
(3 -5.10462e-16 0)
(3 -6.21134e-16 0)
(3 -4.61822e-16 0)
(3 -5.58804e-16 0)
(3 4.35336e-17 0)
(3 7.25358e-17 0)
(3 2.63366e-15 0)
(3 2.75594e-15 0)
(3 8.98082e-14 0)
(3 4.61436e-13 0)
(3 3.33503e-12 0)
(3 3.72597e-12 0)
(3 2.29142e-10 0)
(3 2.74495e-09 0)
(3 -8.61878e-09 0)
(3 1.36616e-07 0)
(3 4.45145e-07 0)
(3 7.50402e-06 0)
(3.00002 7.93543e-05 0)
(3.00015 -2.45301e-05 0)
(3 -3.33106e-18 0)
(3 -1.00976e-16 0)
(3 5.12466e-17 0)
(3 2.56466e-16 0)
(3 4.15041e-16 0)
(3 3.83904e-16 0)
(3 5.58903e-16 0)
(3 3.3868e-16 0)
(3 5.35907e-17 0)
(3 -1.69523e-16 0)
(3 1.46526e-18 0)
(3 1.40353e-15 0)
(3 6.88089e-15 0)
(3 8.61466e-14 0)
(3 5.11189e-13 0)
(3 2.25099e-13 0)
(3 1.73484e-11 0)
(3 -4.27548e-12 0)
(3 9.09273e-10 0)
(3 6.66176e-09 0)
(3 -1.34662e-07 0)
(3 2.7848e-07 0)
(3 6.72701e-07 0)
(3.00002 1.1153e-05 0)
(2.99995 6.06335e-05 0)
(3 1.53957e-16 0)
(3 2.90643e-16 0)
(3 1.82139e-16 0)
(3 1.02638e-16 0)
(3 1.53957e-16 0)
(3 6.4012e-17 0)
(3 2.39622e-16 0)
(3 3.40605e-16 0)
(3 4.09513e-16 0)
(3 6.54629e-16 0)
(3 6.21019e-16 0)
(3 8.64111e-16 0)
(3 1.50736e-15 0)
(3 1.62175e-14 0)
(3 5.18355e-14 0)
(3 6.32269e-13 0)
(3 2.61921e-12 0)
(3 2.59505e-11 0)
(3 1.98883e-10 0)
(3 3.87943e-10 0)
(3 6.4261e-09 0)
(3 2.93487e-08 0)
(3 3.17085e-07 0)
(3 4.02879e-06 0)
(3.00009 1.24675e-05 0)
(3 -1.02638e-16 0)
(3 -3.59232e-16 0)
(3 -3.77615e-16 0)
(3 -7.69784e-16 0)
(3 -7.69784e-16 0)
(3 -7.10943e-16 0)
(3 -6.31471e-16 0)
(3 -4.02397e-16 0)
(3 -6.26657e-16 0)
(3 -2.06792e-16 0)
(3 -4.59505e-17 0)
(3 -1.60453e-17 0)
(3 1.20983e-15 0)
(3 2.66196e-15 0)
(3 2.11955e-14 0)
(3 2.205e-13 0)
(3 -1.1748e-12 0)
(3 6.39624e-12 0)
(3 3.52738e-11 0)
(3 2.19552e-10 0)
(3 -1.11482e-09 0)
(3 2.80312e-08 0)
(3 2.07017e-07 0)
(3 2.12035e-06 0)
(3.00002 2.33667e-05 0)
(3 -1.02638e-16 0)
(3 -1.53957e-16 0)
(3 -1.53957e-16 0)
(3 -5.13189e-17 0)
(3 -5.13189e-17 0)
(3 -1.02638e-16 0)
(3 -5.13189e-17 0)
(3 -5.64508e-16 0)
(3 -7.69784e-16 0)
(3 -8.19021e-16 0)
(3 -1.23385e-15 0)
(3 -1.42199e-15 0)
(3 -1.41714e-15 0)
(3 -1.50011e-15 0)
(3 2.68102e-15 0)
(3 1.82381e-14 0)
(3 4.77073e-13 0)
(3 3.21149e-12 0)
(3 1.67428e-11 0)
(3 1.51378e-10 0)
(3 1.16614e-09 0)
(3 5.57342e-09 0)
(3 1.92907e-08 0)
(3 2.4008e-07 0)
(3.00002 1.45801e-06 0)
(3 5.13189e-17 0)
(3 -5.13189e-17 0)
(3 5.13189e-17 0)
(3 9.19145e-18 0)
(3 9.34464e-17 0)
(3 -1.02638e-16 0)
(3 -1.02638e-16 0)
(3 -1.02638e-16 0)
(3 -1.01217e-16 0)
(3 -3.02013e-16 0)
(3 -5.51811e-16 0)
(3 -8.54429e-16 0)
(3 -8.25899e-16 0)
(3 1.4696e-17 0)
(3 3.57848e-15 0)
(3 8.67835e-14 0)
(3 5.29952e-13 0)
(3 3.59833e-12 0)
(3 3.74098e-12 0)
(3 1.17026e-10 0)
(3 6.91533e-10 0)
(3 2.84713e-09 0)
(3 5.135e-09 0)
(3 1.08406e-07 0)
(3.00002 3.25778e-07 0)
(3 5.13189e-17 0)
(3 1.55253e-16 0)
(3 5.00227e-17 0)
(3 6.51061e-17 0)
(3 3.75317e-17 0)
(3 -2.56595e-16 0)
(3 -5.13189e-16 0)
(3 -6.67146e-16 0)
(3 -8.72422e-16 0)
(3 -8.70145e-16 0)
(3 -8.71139e-16 0)
(3 -8.17128e-16 0)
(3 -7.97797e-16 0)
(3 -5.68269e-16 0)
(3 8.93313e-15 0)
(3 3.39287e-14 0)
(3 -4.07628e-14 0)
(3 8.47705e-13 0)
(3 -1.42182e-12 0)
(3 -4.44178e-11 0)
(3 2.53327e-10 0)
(3 6.35436e-10 0)
(3 2.66765e-09 0)
(3 1.9113e-08 0)
(3.00002 1.45853e-07 0)
(3 5.13189e-17 0)
(3 2.05276e-16 0)
(3 3.07913e-16 0)
(3 3.07913e-16 0)
(3 4.10551e-16 0)
(3 4.6187e-16 0)
(3 4.6187e-16 0)
(3 4.55587e-16 0)
(3 6.08494e-16 0)
(3 2.20582e-16 0)
(3 1.326e-16 0)
(3 -1.78126e-19 0)
(3 -1.43567e-17 0)
(3 -2.6562e-16 0)
(3 6.64705e-15 0)
(3 2.8158e-14 0)
(3 -7.14642e-14 0)
(3 6.63739e-13 0)
(3 -2.20435e-12 0)
(3 -3.34043e-11 0)
(3 1.07308e-10 0)
(3 3.31724e-10 0)
(3 8.17876e-10 0)
(3 5.38783e-09 0)
(3.00002 2.583e-08 0)
(3 -5.13189e-17 0)
(3 -1.02638e-16 0)
(3 -3.07913e-16 0)
(3 -3.7363e-16 0)
(3 -4.51104e-16 0)
(3 -5.2238e-16 0)
(3 -2.98722e-16 0)
(3 -1.02638e-16 0)
(3 -1.02638e-16 0)
(3 -1.54121e-16 0)
(3 -2.46007e-16 0)
(3 -4.11898e-16 0)
(3 -4.02981e-16 0)
(3 -3.96896e-16 0)
(3 -8.75691e-16 0)
(3 8.22814e-15 0)
(3 1.16231e-14 0)
(3 1.7409e-13 0)
(3 7.01545e-13 0)
(3 -1.11467e-12 0)
(3 4.62395e-11 0)
(3 1.20308e-10 0)
(3 8.34453e-10 0)
(3 5.01552e-09 0)
(3.00002 5.56362e-08 0)
(3 -1.02638e-16 0)
(3 -2.56595e-16 0)
(3 -5.64508e-16 0)
(3 -7.18465e-16 0)
(3 -8.72421e-16 0)
(3 -9.75059e-16 0)
(3 -9.72616e-16 0)
(3 -1.12902e-15 0)
(3 -1.2317e-15 0)
(3 -1.34334e-15 0)
(3 -8.55647e-16 0)
(3 -6.75271e-16 0)
(3 -5.44807e-16 0)
(3 -4.82419e-16 0)
(3 -4.22053e-16 0)
(3 1.43406e-16 0)
(3 -8.18362e-16 0)
(3 -3.34117e-16 0)
(3 -2.21919e-14 0)
(3 -1.20876e-12 0)
(3 8.98786e-13 0)
(3 3.15801e-12 0)
(3 -4.35329e-11 0)
(3 -7.39822e-10 0)
(3.00002 -8.42696e-09 0)
(1.23592 1.11723 0)
(0.499201 0.631241 0)
(-0.582465 -0.0838383 0)
(-0.309039 -0.27897 0)
(-0.398641 -0.175785 0)
(-0.259307 0.0122496 0)
(-0.739818 0.211074 0)
(-1.01142 0.177231 0)
(-1.15326 0.135997 0)
(-1.19505 0.0905522 0)
(-1.19 0.0358319 0)
(-1.18694 0.0325571 0)
(-1.19661 0.0211364 0)
(-1.26372 0.00477758 0)
(-1.32157 -0.0157006 0)
(-1.36133 -0.0173955 0)
(-1.38113 -0.0151474 0)
(-1.3875 -0.0141166 0)
(-1.38651 -0.0105293 0)
(-1.38605 -0.00897068 0)
(-1.38706 -0.00508154 0)
(-1.38975 -0.00331515 0)
(-1.39212 -0.000538414 0)
(-1.39858 0.00325189 0)
(-1.40276 0.00451628 0)
(-1.40538 0.00449663 0)
(-1.40644 0.00410463 0)
(-1.39724 0.00227396 0)
(-1.37838 0.00369102 0)
(-1.35141 0.00757748 0)
(-1.31487 0.00873322 0)
(-1.2619 0.005158 0)
(-1.20947 -0.000146814 0)
(-1.15595 -0.0112662 0)
(-1.08823 -0.0223687 0)
(-1.01595 -0.032998 0)
(-0.941777 -0.0410221 0)
(-0.869625 -0.049781 0)
(-0.80132 -0.0390582 0)
(-0.720229 -0.0319321 0)
(-0.637322 -0.023319 0)
(-0.55435 -0.00779458 0)
(-0.469267 0.000810403 0)
(-0.394056 0.0110847 0)
(-0.332272 0.00610082 0)
(-0.240427 -0.0164914 0)
(-0.154708 -0.0184695 0)
(-0.0749202 -0.0302295 0)
(0.0198895 -0.0319242 0)
(0.0953208 -0.0267875 0)
(0.16909 -0.0262001 0)
(0.235494 -0.0243937 0)
(0.299469 -0.0253144 0)
(0.359014 -0.0253393 0)
(0.415375 -0.0253727 0)
(0.468726 -0.0246997 0)
(0.518775 -0.0235228 0)
(0.565278 -0.0219375 0)
(0.609048 -0.0204199 0)
(0.650699 -0.0191797 0)
(0.690249 -0.0177932 0)
(0.727299 -0.0165759 0)
(0.762524 -0.0155213 0)
(0.795923 -0.0145103 0)
(0.827981 -0.0135342 0)
(0.858646 -0.0126663 0)
(0.887884 -0.0118605 0)
(0.915864 -0.0108995 0)
(0.942295 -0.0100626 0)
(0.96774 -0.00933194 0)
(0.991758 -0.00871673 0)
(1.01507 -0.00814712 0)
(1.03715 -0.00764659 0)
(1.05878 -0.00716166 0)
(1.07928 -0.00675885 0)
(1.09942 -0.0063627 0)
(1.11844 -0.00596474 0)
(1.13706 -0.00548783 0)
(1.15454 -0.005057 0)
(1.17158 -0.00463459 0)
(1.18802 -0.00429682 0)
(1.20392 -0.00394147 0)
(1.2196 -0.00366186 0)
(1.23491 -0.00334419 0)
(1.24999 -0.00314981 0)
(1.26494 -0.00288088 0)
(1.27947 -0.00270472 0)
(1.29386 -0.00245846 0)
(1.30765 -0.00232416 0)
(1.32131 -0.00212325 0)
(1.33467 -0.00203542 0)
(1.3479 -0.00182499 0)
(1.36105 -0.00172877 0)
(1.37407 -0.00147382 0)
(1.38719 -0.00143539 0)
(1.40025 -0.00113392 0)
(1.4138 -0.00125236 0)
(1.42734 -0.000746347 0)
(1.4419 -0.000703015 0)
(1.45858 0.0010368 0)
(1.26643 1.01924 0)
(1.18925 0.79109 0)
(0.746672 0.590097 0)
(0.569301 0.251947 0)
(-0.125229 0.107442 0)
(-0.230637 0.221942 0)
(-0.670394 0.242486 0)
(-0.82032 0.0979474 0)
(-0.897915 0.0245292 0)
(-0.839594 -0.0626545 0)
(-0.788952 -0.0451625 0)
(-0.772653 -0.0362137 0)
(-0.798045 -0.0176544 0)
(-0.874446 -0.00707072 0)
(-0.932922 0.0345271 0)
(-0.970481 0.0525808 0)
(-0.983734 0.0405237 0)
(-0.986383 0.025784 0)
(-0.981902 0.0130877 0)
(-0.98114 0.00892029 0)
(-0.98063 0.0074137 0)
(-0.983252 0.0051668 0)
(-0.984562 -0.00163829 0)
(-0.998274 -0.0040157 0)
(-1.00689 -0.00707871 0)
(-1.01295 -0.00597992 0)
(-1.0153 -0.00533401 0)
(-1.00153 -0.00726505 0)
(-0.975746 -0.00861403 0)
(-0.945377 -0.0118594 0)
(-0.911748 -0.0168248 0)
(-0.852731 -0.0257573 0)
(-0.795444 -0.0295705 0)
(-0.73556 -0.0268073 0)
(-0.660112 -0.0273075 0)
(-0.577273 -0.0304985 0)
(-0.494305 -0.0282044 0)
(-0.412003 -0.0324075 0)
(-0.350295 -0.0341409 0)
(-0.232413 -0.0645743 0)
(-0.129177 -0.0835903 0)
(-0.01019 -0.100884 0)
(0.128755 -0.117443 0)
(0.252735 -0.11595 0)
(0.385895 -0.125587 0)
(0.495412 -0.128317 0)
(0.574959 -0.120064 0)
(0.649605 -0.114157 0)
(0.709429 -0.109388 0)
(0.762433 -0.0973845 0)
(0.813542 -0.0906217 0)
(0.860952 -0.0850727 0)
(0.903001 -0.0787337 0)
(0.939995 -0.0710902 0)
(0.975484 -0.0662681 0)
(1.00656 -0.0602491 0)
(1.03666 -0.0552376 0)
(1.0643 -0.0501552 0)
(1.09134 -0.0464289 0)
(1.11715 -0.0433028 0)
(1.14191 -0.0400939 0)
(1.1654 -0.0366591 0)
(1.18849 -0.0337938 0)
(1.21024 -0.0312882 0)
(1.23123 -0.0291959 0)
(1.25184 -0.027026 0)
(1.27155 -0.0250927 0)
(1.29069 -0.02311 0)
(1.30912 -0.0213718 0)
(1.3269 -0.019636 0)
(1.34385 -0.0182447 0)
(1.36029 -0.0169039 0)
(1.37607 -0.0158886 0)
(1.39161 -0.0148425 0)
(1.40658 -0.013912 0)
(1.42143 -0.0128606 0)
(1.43565 -0.0118952 0)
(1.44978 -0.010855 0)
(1.46308 -0.0099986 0)
(1.47612 -0.00903221 0)
(1.48872 -0.00829056 0)
(1.50092 -0.00746985 0)
(1.51304 -0.00687768 0)
(1.52494 -0.00615648 0)
(1.53676 -0.00563997 0)