/*--------------------------------*- C++ -*----------------------------------*\
| =========                 |                                                 |
| \\      /  F ield         | OpenFOAM: The Open Source CFD Toolbox           |
|  \\    /   O peration     | Version:  v2106                                 |
|   \\  /    A nd           | Website:  www.openfoam.com                      |
|    \\/     M anipulation  |                                                 |
\*---------------------------------------------------------------------------*/
FoamFile
{
    version     2.0;
    format      ascii;
    arch        "LSB;label=32;scalar=64";
    class       volScalarField;
    location    "18";
    object      p;
}
// * * * * * * * * * * * * * * * * * * * * * * * * * * * * * * * * * * * * * //

dimensions      [1 -1 -2 0 0 0 0];

internalField   nonuniform List<scalar> 
5250
(
1
1
1
1
1
1
1
1
1.00001
1.00008
1.00069
1.0061
1.05362
1.42712
3.09702
8.96865
13.0195
10.8964
11.4732
11.6878
11.7823
11.9404
12.048
12.1314
12.1787
1
1
1
1
1
1
1
1
1.00001
1.00008
1.00067
1.00593
1.05187
1.41702
3.05851
8.84541
13.0603
10.8712
11.4652
11.6809
11.7694
11.927
12.0351
12.1175
12.1647
1
1
1
1
1
1
1
1
1.00001
1.00007
1.00062
1.00556
1.04814
1.39483
2.97244
8.55411
13.129
10.7988
11.4238
11.6322
11.7226
11.8688
11.9742
12.0501
12.0913
1
1
1
1
1
1
1
1
1.00001
1.00007
1.00056
1.0051
1.04298
1.36322
2.84748
8.12789
13.2373
10.7274
11.369
11.5755
11.6621
11.8006
11.8915
11.9612
11.9989
1
1
1
1
1
1
1
1
1.00001
1.00006
1.00047
1.00457
1.03675
1.32294
2.68198
7.60635
13.2472
10.6516
11.2721
11.4836
11.5561
11.6749
11.7671
11.8291
11.8652
1
1
1
1
1
1
1
1
1
1.00004
1.00038
1.0036
1.02994
1.27839
2.49465
7.01996
13.1774
10.6115
11.1775
11.3871
11.4606
11.5612
11.6306
11.6573
11.6813
1
1
1
1
1
1
1
1
1
1.00003
1.00027
1.00277
1.0234
1.23114
2.28627
6.3603
12.9468
10.6209
11.0393
11.2599
11.3087
11.3583
11.426
11.4394
11.4347
1
1
1
1
1
1
1
1
1
1.00003
1.0002
1.00252
1.01912
1.19451
2.12556
5.72636
12.3552
10.612
10.8825
11.0692
11.1634
11.1695
11.1559
11.1702
11.0609
1
1
1
1
1
1
1
1
1
1.00003
1.00015
1.00202
1.0147
1.15504
1.94319
5.06822
11.5543
10.6051
10.7042
10.8704
10.9251
10.8753
10.7795
10.7121
10.4871
1
1
1
1
1
1
1
1
1
1.00003
1.0001
1.00174
1.01114
1.13084
1.77883
4.45066
10.5971
10.6002
10.5815
10.5649
10.6473
10.5946
10.3163
10.3674
9.44126
1
1
1
1
1
1
1
1
1
1.00001
1.0001
1.00111
1.00904
1.08879
1.60963
3.82769
9.50852
10.6168
10.3897
10.2856
10.2539
10.1969
9.70113
9.33632
6.87747
1
1
1
1
1
1
1
1
1
1.00001
1.00009
1.00055
1.00653
1.04883
1.4551
3.25489
8.35143
10.7035
10.0283
9.99278
9.89091
9.7561
9.09252
8.46298
6.52073
1
1
1
1
1
1
1
1
1
1.00001
1.00005
1.00046
1.00424
1.03444
1.30771
2.60464
7.03701
10.7277
9.73486
9.71748
9.61659
9.38531
8.76772
7.98756
6.65062
1
1
1
1
1
1
1
1
1
1
1.00003
1.00024
1.00257
1.02086
1.20949
2.19419
5.80783
10.4278
9.62995
9.48476
9.3683
9.08118
8.50172
7.77156
6.64727
1
1
1
1
1
1
1
1
1
1
1.00003
1.00012
1.0021
1.01276
1.14907
1.84851
4.72575
9.39339
9.62368
9.36468
9.11855
8.78133
8.25577
7.61304
6.64535
1
1
1
1
1
1
1
1
1
1
1.00001
1.00012
1.00108
1.00902
1.08291
1.56449
3.70239
8.02221
9.54766
9.1321
8.82723
8.50169
8.05022
7.49411
6.65054
1
1
1
1
1
1
1
1
1
1
0.999999
1.00008
1.0002
1.00509
1.02804
1.33586
2.78198
6.60244
9.42302
8.9003
8.61266
8.32051
7.8969
7.3785
6.64357
1
1
1
1
1
1
1
1
1
1
1
1.00004
1.00021
1.00294
1.01982
1.20596
2.13188
5.20606
8.90851
8.85476
8.5361
8.21388
7.79386
7.28264
6.63339
1
1
1
1
1
1
1
1
1
1
1
1.00002
1.00016
1.00146
1.01196
1.10749
1.70517
4.04082
7.81951
8.84739
8.46049
8.05828
7.64461
7.17828
6.60333
1
1
1
1
1
1
1
1
1
1
1
0.999999
1.00011
1.00031
1.00668
1.03824
1.43049
2.97527
6.3575
8.64413
8.24287
7.88962
7.52041
7.10551
6.59012
1
1
1
1
1
1
1
1
1
1
1
1
1.00004
1.00033
1.00278
1.02308
1.18739
2.09757
4.83048
7.97527
8.15631
7.83224
7.46161
7.06363
6.59271
1
1
1
1
1
1
1
1
1
1
1
1
1.00004
1.00027
1.00013
1.01393
1.05708
1.72174
3.60675
6.74726
8.11252
7.78064
7.42948
7.04739
6.60447
1
1
1
1
1
1
1
1
1
1
1
1
1.00001
1.00007
1.0005
1.00438
1.03444
1.26551
2.44297
5.23867
7.69144
7.63125
7.37042
7.02311
6.60552
1
1
1
1
1
1
1
1
1
1
1
1
1
1.00004
1.00038
1.00118
1.0176
1.02521
1.80357
3.92277
6.78484
7.68945
7.38485
7.03779
6.63186
1
1
1
1
1
1
1
1
1
1
1
1
1
1.00001
1.00009
1.0007
1.00603
1.04469
1.35572
2.75836
5.44404
7.4683
7.30108
7.00859
6.6412
1
1
1
1
1
1
1
1
1
1
1
1
1
1
1.00008
1.0004
1.00036
1.01735
1.05641
1.92089
4.0566
6.61654
7.32138
7.0257
6.67303
1
1
1
1
1
1
1
1
1
1
1
1
1
1
1.00001
1.00011
1.0008
1.00684
1.04978
1.39376
2.822
5.29781
7.08408
6.93989
6.6575
1
1
1
1
1
1
1
1
1
1
1
1
1
1
1
1.00007
1.00036
0.99999
1.01855
1.05135
1.89447
3.92843
6.27581
6.97171
6.68011
1
1
1
1
1
1
1
1
1
1
1
1
1
1
1
1.00001
1.00012
1.00078
1.00678
1.04588
1.38373
2.71936
5.00756
6.71466
6.64834
1
1
1
1
1
1
1
1
1
1
1
1
1
1
1
1
1.00004
1.0002
0.999399
1.01581
1.06046
1.81836
3.66835
5.85165
6.67579
1
1
1
1
1
1
1
1
1
1
1
1
1
1
1
1
1
1.00009
1.00056
1.00567
1.03807
1.32959
2.49806
4.59523
6.30753
1
1
1
1
1
1
1
1
1
1
1
1
1
1
1
1
1
1
1.00003
0.999183
1.01103
1.06325
1.70104
3.26148
5.38189
1
1
1
1
1
1
1
1
1
1
1
1
1
1
1
1
1
1.00001
1.00008
1.00058
1.00497
1.03716
1.28259
2.42591
4.21996
1
1
1
1
1
1
1
1
1
1
1
1
1
1
1
1
1
1
1.00002
1.00009
1.00081
1.00824
1.05236
1.47558
2.75418
1
1
1
1
1
1
1
1
1
1
1
1
1
1
1
1
1
1
1.00001
1.00002
1.00035
1.00073
1.02012
0.997086
1.72988
1
1
1
1
1
1
1
1
1
1
1
1
1
1
1
1
1
1
1
1.00002
1.00008
0.999709
1.00542
1.0329
1.30793
1
1
1
1
1
1
1
1
1
1
1
1
1
1
1
1
1
1
1
1
1.00002
1.00017
1.00094
1.00909
1.03846
1
1
1
1
1
1
1
1
1
1
1
1
1
1
1
1
1
1
1
1
1.00001
1.00005
1.0004
1.00285
1.01846
1
1
1
1
1
1
1
1
1
1
1
1
1
1
1
1
1
1
1
1
1
1.00001
1.0001
1.00063
1.0049
1
1
1
1
1
1
1
1
1
1
1
1
1
1
1
1
1
1
1
1
1
1
1.00001
1.00022
1.00073
1
1
1
1
1
1
1
1
1
1
1
1
1
1
1
1
1
1
1
1
1
1
1.00001
1.00003
1.00034
1
1
1
1
1
1
1
1
1
1
1
1
1
1
1
1
1
1
1
1
1
1
1
1.00001
1.00004
1
1
1
1
1
1
1
1
1
1
1
1
1
1
1
1
1
1
1
1
1
1
1
1
1.00002
1
1
1
1
1
1
1
1
1
1
1
1
1
1
1
1
1
1
1
1
1
1
1
1
1
1
1
1
1
1
1
1
1
1
1
1
1
1
1
1
1
1
1
1
1
1
1
1
1
1
1
1
1
1
1
1
1
1
1
1
1
1
1
1
1
1
1
1
1
1
1
1
1
1
1
1
1
1
1
1
1
1
1
1
1
1
1
1
1
1
1
1
1
1
1
1
1
1
1
1
1
1
1
1
1
1
1
1
1
1
1
1
1
1
1
1
1
1
1
1
1
1
1
1
1
1
1
1
1
1
1
1
1
1
1
1
1
1
1
1
1
1
1
1
1
1
1
1
1
1
1
1
1
1
1
1
1
1
1
1
1
1
1
1
1
1
1
1
1
1
1
1
1
1
1
2.70803
3.05032
3.8331
3.27251
3.50915
3.52099
3.32126
2.87929
2.55472
2.44996
2.45667
2.47631
2.48181
2.46156
2.36059
2.19365
2.08441
2.04427
2.04072
2.05604
2.07096
2.07583
2.07523
2.0706
2.06186
2.04955
2.03548
2.02442
2.01861
2.01682
2.01897
2.03833
2.07447
2.13795
2.24281
2.36962
2.50893
2.67004
2.85854
3.05082
3.23742
3.4503
3.65363
3.87528
4.08257
4.26118
4.3623
4.50467
4.62384
4.69776
4.79021
4.85522
4.88015
4.90222
4.91313
4.90901
4.89559
4.87581
4.84706
4.81298
4.77457
4.73184
4.68573
4.63677
4.5862
4.53428
4.48135
4.42757
4.37299
4.31823
4.26387
4.21026
4.1574
4.10569
4.0553
4.00619
3.95837
3.91124
3.86471
3.81853
3.7728
3.72779
3.68368
3.64077
3.5992
3.55881
3.51966
3.48146
3.44439
3.40825
3.37323
3.33915
3.30621
3.27382
3.24244
3.21041
3.17855
3.14474
3.1113
3.09167
4.11333
3.96803
3.53904
3.2599
3.63718
3.66168
3.52524
2.92717
2.45474
2.33079
2.37977
2.45885
2.46782
2.41465
2.29887
2.17603
2.0925
2.05186
2.05278
2.05949
2.07131
2.07757
2.0783
2.07382
2.07013
2.0593
2.04814
2.0304
2.01927
2.01528
2.01856
2.04228
2.07984
2.13395
2.22532
2.33265
2.46236
2.63496
2.8359
3.05159
3.26302
3.47244
3.67003
3.87499
4.07234
4.23088
4.32301
4.47224
4.6001
4.68226
4.77172
4.84105
4.87106
4.89301
4.90541
4.90297
4.88743
4.8679
4.8399
4.80508
4.76747
4.72565
4.68003
4.63145
4.58114
4.52988
4.47762
4.4244
4.37014
4.31544
4.26122
4.20766
4.15494
4.1034
4.05302
4.00406
3.95646
3.90942
3.86294
3.81672
3.77087
3.72584
3.68175
3.63894
3.59758
3.55737
3.5184
3.48035
3.44332
3.40725
3.37219
3.33812
3.3052
3.27311
3.24164
3.21002
3.17791
3.14379
3.10846
3.08794
4.94814
4.30051
3.91405
3.56956
3.58658
3.53947
3.18448
2.64046
2.41451
2.40065
2.46053
2.49531
2.49515
2.47594
2.41634
2.25433
2.07427
2.01449
2.01031
2.03799
2.06465
2.0762
2.07253
2.06668
2.05541
2.04562
2.03114
2.02263
2.01828
2.01969
2.01857
2.03486
2.06737
2.12314
2.22536
2.35547
2.49094
2.64084
2.82959
3.00153
3.17754
3.3939
3.60196
3.82836
4.04111
4.22064
4.3202
4.44129
4.55915
4.65332
4.73312
4.79924
4.83938
4.85924
4.86865
4.87086
4.85984
4.8437
4.81962
4.78766
4.75138
4.71096
4.66681
4.61987
4.57076
4.52012
4.46865
4.41603
4.36255
4.30895
4.2557
4.20276
4.15041
4.09904
4.04887
4.00022
3.95281
3.90594
3.85951
3.81328
3.7675
3.72255
3.67871
3.63621
3.59512
3.55523
3.51639
3.47851
3.44163
3.40567
3.37063
3.33647
3.30366
3.27191
3.24049
3.20901
3.17688
3.14254
3.10563
3.08337
5.36798
4.47907
4.00534
3.65435
3.55098
3.51944
3.25354
2.85359
2.57836
2.43739
2.41839
2.46346
2.47041
2.41462
2.27309
2.11249
2.05407
2.03382
2.0431
2.06628
2.07479
2.0784
2.08195
2.07489
2.07411
2.06104
2.05885
2.03299
2.01839
2.00966
2.00576
2.0299
2.06852
2.1089
2.19185
2.29088
2.40505
2.57568
2.76998
2.97129
3.17064
3.34691
3.56158
3.74782
3.93961
4.09681
4.23246
4.35686
4.48364
4.60611
4.67034
4.74486
4.78749
4.81921
4.8406
4.84183
4.82993
4.81265
4.79477
4.76414
4.73003
4.69331
4.65014
4.60378
4.55583
4.50678
4.45682
4.40563
4.35319
4.30011
4.24757
4.19574
4.14437
4.09353
4.04361
3.99497
3.94747
3.90064
3.85405
3.80767
3.76184
3.71708
3.67365
3.63171
3.59127
3.55201
3.51364
3.47606
3.43938
3.40368
3.36859
3.33436
3.3015
3.26991
3.23859
3.20733
3.17536
3.14091
3.10266
3.07841
5.53353
4.73125
4.13102
3.77817
3.64693
3.5409
3.32429
2.89454
2.53548
2.4158
2.42558
2.47859
2.47462
2.42507
2.34722
2.21984
2.11681
2.05229
2.03012
2.0448
2.06392
2.07487
2.0724
2.06762
2.05601
2.04629
2.02946
2.0172
2.01404
2.01783
2.01518
2.02383
2.04561
2.09789
2.18044
2.27921
2.38865
2.51795
2.66396
2.83757
2.9974
3.20103
3.44014
3.65459
3.8461
4.00287
4.14125
4.2355
4.3723
4.49968
4.58481
4.67668
4.73305
4.75988
4.77193
4.77156
4.7761
4.76907
4.75664
4.73099
4.69661
4.66305
4.62486
4.58112
4.53427
4.48622
4.43781
4.38829
4.33802
4.28747
4.23706
4.18669
4.13633
4.08637
4.03719
3.98887
3.94127
3.89416
3.84742
3.80112
3.75567
3.71151
3.66886
3.62761
3.58767
3.54871
3.51051
3.4731
3.43667
3.40122
3.36625
3.33197
3.29895
3.26738
3.2363
3.20519
3.17336
3.13881
3.09966
3.07399
5.69327
4.92589
4.35205
3.94691
3.7535
3.62508
3.45834
3.06468
2.70004
2.50891
2.47603
2.48721
2.48306
2.42934
2.31966
2.17983
2.08383
2.04285
2.03821
2.05746
2.07419
2.07577
2.08112
2.07263
2.07214
2.05637
2.05574
2.03162
2.02725
2.01096
2.01517
2.03785
2.06334
2.09095
2.14835
2.19919
2.25517
2.33748
2.44854
2.57802
2.72927
2.92216
3.14295
3.38981
3.61933
3.84776
4.03432
4.15734
4.26222
4.33643
4.44177
4.56156
4.65544
4.69888
4.70981
4.71774
4.72177
4.71547
4.7059
4.69851
4.67025
4.63527
4.59776
4.55764
4.51395
4.46625
4.4173
4.36826
4.31977
4.27227
4.22453
4.17608
4.12727
4.07832
4.02953
3.98124
3.93342
3.88609
3.83929
3.79329
3.74842
3.70507
3.66325
3.62276
3.58333
3.54488
3.50719
3.47021
3.43406
3.39887
3.36423
3.33003
3.29678
3.26499
3.23392
3.2028
3.17102
3.13644
3.09674
3.07018
5.80905
5.08305
4.52739
4.13506
3.86774
3.70896
3.54026
3.25813
2.94772
2.64975
2.49847
2.47193
2.46569
2.43681
2.37397
2.25608
2.15493
2.08694
2.05167
2.04807
2.05916
2.06892
2.0704
2.06822
2.05849
2.05034
2.03963
2.03087
2.02942
2.03639
2.0583
2.09209
2.10558
2.12931
2.14892
2.15437
2.18293
2.22505
2.27642
2.34957
2.44084
2.55485
2.71541
2.89502
3.10228
3.37403
3.70734
4.00944
4.18927
4.2742
4.33542
4.40527
4.49155
4.58702
4.64952
4.66438
4.66781
4.65188
4.64298
4.64367
4.62997
4.60136
4.56426
4.52279
4.4817
4.43783
4.39254
4.34774
4.30233
4.25599
4.20927
4.16277
4.11611
4.06886
4.02117
3.97331
3.92532
3.87754
3.83053
3.78504
3.74139
3.69929
3.65837
3.61848
3.57943
3.54114
3.50347
3.46649
3.4306
3.3958
3.36145
3.3274
3.29397
3.26194
3.23088
3.19976
3.16802
3.1334
3.09325
3.06606
5.8848
5.22198
4.67754
4.27764
4.00543
3.82156
3.62797
3.38209
3.1132
2.84977
2.6338
2.53371
2.50422
2.48546
2.4437
2.3454
2.20649
2.095
2.03367
2.02819
2.04541
2.07433
2.09324
2.08337
2.07031
2.05418
2.05996
2.04659
2.08295
2.02803
2.17387
2.28164
2.29157
2.28634
2.25955
2.20355
2.17128
2.17453
2.19065
2.22757
2.25457
2.32025
2.40976
2.50674
2.63569
2.83682
3.09341
3.4041
3.79598
4.16247
4.35083
4.363
4.38288
4.43237
4.51696
4.57995
4.62053
4.61474
4.60374
4.5857
4.57499
4.55516
4.53258
4.49918
4.45759
4.41379
4.36833
4.3243
4.28165
4.23841
4.19386
4.14866
4.10341
4.05795
4.0116
3.96425
3.91604
3.86828
3.822
3.77766
3.7352
3.69428
3.65426
3.61492
3.57614
3.53794
3.50043
3.46377
3.4282
3.39366
3.35961
3.32576
3.29237
3.26006
3.22863
3.19725
3.16533
3.13059
3.09011
3.06244
5.94598
5.33951
4.82195
4.41259
4.14371
3.92509
3.74562
3.52817
3.27993
3.02274
2.798
2.63247
2.55443
2.51865
2.46631
2.40739
2.29834
2.17836
2.09064
2.04952
2.05207
2.06231
2.0809
2.08162
2.07619
2.06905
2.06111
2.07982
2.08766
2.21772
2.37387
2.58494
2.61954
2.57494
2.47008
2.3628
2.27716
2.22099
2.2047
2.19718
2.20508
2.2245
2.25516
2.28282
2.34911
2.45175
2.58461
2.79572
3.09109
3.46124
3.94724
4.31084
4.44123
4.39427
4.38272
4.43042
4.49473
4.54634
4.55896
4.54138
4.52424
4.50905
4.4907
4.46814
4.43115
4.38608
4.34194
4.30065
4.26063
4.2202
4.17821
4.13405
4.08887
4.04366
3.99844
3.9526
3.90546
3.85795
3.81203
3.76873
3.72749
3.68735
3.64789
3.60908
3.57087
3.53325
3.49624
3.46
3.42477
3.39045
3.35661
3.32302
3.28977
3.25719
3.22525
3.19351
3.16131
3.12635
3.08546
3.05735
6.00948
5.44318
4.95112
4.55247
4.26817
4.02547
3.85148
3.64915
3.4103
3.16547
2.93364
2.73893
2.61743
2.54553
2.49534
2.43689
2.35911
2.27318
2.18263
2.10027
2.06069
2.06511
2.07122
2.0891
2.08366
2.09011
2.08305
2.13414
2.22086
2.59958
2.93494
3.05941
3.02571
2.91066
2.7296
2.56579
2.44189
2.35306
2.29737
2.25907
2.23357
2.2156
2.21179
2.20998
2.23231
2.25937
2.31882
2.41782
2.55241
2.78976
3.14745
3.61079
4.14273
4.4139
4.40788
4.38456
4.38489
4.42338
4.46864
4.49061
4.48262
4.47005
4.44728
4.42295
4.39572
4.36073
4.31825
4.2782
4.24131
4.20229
4.16157
4.11896
4.07536
4.03097
3.98587
3.94005
3.89406
3.84802
3.80338
3.76106
3.7208
3.68172
3.64307
3.60478
3.56687
3.52943
3.4927
3.45683
3.42191
3.38779
3.35409
3.32057
3.28727
3.25445
3.22211
3.18995
3.15731
3.12192
3.08048
3.05185
6.0588
5.52536
5.05388
4.67172
4.36394
4.124
3.93775
3.74121
3.52595
3.29412
3.0655
2.86443
2.70241
2.60242
2.54141
2.48448
2.42096
2.34901
2.26789
2.18442
2.11517
2.08665
2.08631
2.08488
2.09272
2.09476
2.13667
2.22127
2.53338
3.05915
3.64513
3.61267
3.50607
3.29086
3.05107
2.85771
2.7057
2.58857
2.49177
2.41621
2.34963
2.29014
2.24169
2.21109
2.20199
2.19444
2.20877
2.22918
2.27703
2.38737
2.56035
2.83085
3.24356
3.8063
4.29564
4.47517
4.40536
4.34716
4.34753
4.38534
4.41927
4.41648
4.40487
4.38198
4.35301
4.32669
4.29713
4.26102
4.22245
4.18017
4.13755
4.09732
4.05742
4.01604
3.97261
3.92708
3.88092
3.83605
3.79288
3.75122
3.7111
3.67241
3.63468
3.59758
3.56078
3.52432
3.48826
3.45283
3.41822
3.38428
3.35066
3.3172
3.28392
3.25092
3.21816
3.18544
3.1522
3.11624
3.0741
3.04485
6.10791
5.60937
5.15331
4.77115
4.45496
4.21722
4.00843
3.82696
3.62858
3.40583
3.19215
2.99186
2.80996
2.67704
2.59131
2.53946
2.4884
2.41649
2.34105
2.25217
2.17827
2.12702
2.10032
2.08499
2.09144
2.12366
2.20314
2.42134
2.95192
3.71611
4.15906
4.11671
3.93666
3.66078
3.41535
3.21038
3.03249
2.87388
2.74052
2.62877
2.53319
2.45137
2.37685
2.3082
2.25044
2.20733
2.17611
2.16858
2.18299
2.21156
2.25692
2.37178
2.58054
2.9269
3.41356
4.04305
4.38826
4.41825
4.34358
4.3049
4.31212
4.34444
4.34508
4.33678
4.31861
4.29327
4.26445
4.23309
4.20132
4.16456
4.12174
4.07879
4.03748
3.99657
3.95487
3.91163
3.8668
3.82269
3.78091
3.74098
3.7022
3.66423
3.62696
3.59045
3.5545
3.51902
3.48376
3.44864
3.41395
3.37987
3.34618
3.31268
3.2793
3.24611
3.21302
3.17993
3.14625
3.10974
3.06683
3.03678
6.13764
5.67035
5.23343
4.86119
4.54312
4.29189
4.08173
3.90848
3.71445
3.51304
3.30468
3.10596
2.92705
2.76793
2.6583
2.59248
2.53425
2.47247
2.39964
2.31468
2.24484
2.18086
2.12372
2.09004
2.11138
2.18058
2.35862
2.82427
3.66633
4.43137
4.53197
4.40944
4.18247
3.94448
3.72495
3.51235
3.31973
3.14836
2.99515
2.86256
2.74598
2.64239
2.54799
2.45903
2.37889
2.3052
2.23526
2.19472
2.1709
2.15743
2.15594
2.18751
2.25378
2.39246
2.65243
3.05955
3.6195
4.20775
4.46321
4.38261
4.27013
4.23477
4.24853
4.28339
4.285
4.26834
4.23346
4.19918
4.1633
4.13297
4.09849
4.06038
4.01943
3.97761
3.93558
3.89396
3.85213
3.80995
3.76852
3.72913
3.69173
3.65537
3.61958
3.58424
3.54906
3.51395
3.47892
3.44415
3.4097
3.37557
3.34174
3.30811
3.27458
3.2411
3.20758
3.17395
3.13962
3.10242
3.05855
3.0275
6.18435
5.73748
5.31204
4.95055
4.63199
4.36707
4.15813
3.97644
3.7919
3.61161
3.40782
3.20957
3.03823
2.87356
2.74233
2.6523
2.59045
2.52561
2.45025
2.38492
2.31798
2.23419
2.15578
2.13785
2.17193
2.31149
2.69563
3.47865
4.38365
4.8417
4.72832
4.56226
4.37853
4.1921
3.99017
3.78461
3.58422
3.40126
3.23737
3.08866
2.95497
2.83687
2.72738
2.62695
2.53139
2.44111
2.36509
2.3005
2.2346
2.18388
2.14855
2.13199
2.14305
2.17331
2.2667
2.4363
2.75322
3.22785
3.88472
4.32167
4.40389
4.28028
4.19822
4.18179
4.2073
4.20795
4.19962
4.17934
4.14207
4.10229
4.07025
4.03938
4.00429
3.96341
3.91921
3.87543
3.83497
3.7966
3.75796
3.71967
3.68252
3.64675
3.61227
3.5785
3.54486
3.51086
3.47592
3.44009
3.40462
3.36997
3.33582
3.302
3.2683
3.23462
3.20087
3.16693
3.13206
3.09406
3.04894
3.01667
6.21746
5.79046
5.37729
5.02325
4.71218
4.44372
4.23687
4.05046
3.87564
3.6927
3.50814
3.32139
3.1469
2.98198
2.83142
2.72161
2.64547
2.56882
2.50419
2.44325
2.36639
2.26736
2.21864
2.23311
2.32425
2.62791
3.32902
4.28809
4.84175
4.8729
4.81045
4.70175
4.55759
4.38818
4.19962
4.00294
3.81137
3.62842
3.45515
3.29722
3.15506
3.02537
2.90584
2.79531
2.68883
2.5927
2.51004
2.42154
2.34445
2.28252
2.22297
2.17357
2.13581
2.11157
2.12452
2.15932
2.2803
2.50955
2.89626
3.44986
4.0856
4.3875
4.343
4.18274
4.11631
4.11099
4.13301
4.12673
4.11864
4.08255
4.03957
4.00135
3.96854
3.93456
3.8972
3.85692
3.81697
3.779
3.74294
3.7074
3.67222
3.63801
3.60437
3.57106
3.53786
3.50433
3.47008
3.43492
3.39915
3.3639
3.32952
3.29557
3.26169
3.22774
3.19353
3.15886
3.12306
3.08405
3.03757
3.00401
6.26906
5.85613
5.45115
5.09647
4.79131
4.51676
4.30946
4.13125
3.95736
3.77761
3.60314
3.42726
3.25019
3.08801
2.92857
2.79513
2.697
2.62225
2.55089
2.47912
2.39035
2.33474
2.32242
2.3801
2.62168
3.2223
4.15982
4.80264
4.93653
4.91006
4.85359
4.77135
4.66167
4.52579
4.36814
4.19418
4.01198
3.8314
3.65636
3.49332
3.34168
3.20186
3.07535
2.95472
2.84374
2.74334
2.63693
2.54501
2.47512
2.40329
2.33253
2.26006
2.19274
2.13786
2.09925
2.08623
2.10241
2.17269
2.335
2.62149
3.0662
3.67584
4.18365
4.35314
4.22362
4.08557
4.02849
4.03869
4.0454
4.04574
4.0288
3.98879
3.94736
3.91187
3.87851
3.84376
3.80778
3.76912
3.73006
3.69447
3.6617
3.63052
3.60006
3.5689
3.5364
3.50255
3.4667
3.43012
3.39369
3.35794
3.32282
3.2881
3.25359
3.21909
3.18445
3.14928
3.11281
3.07295
3.02513
2.99034
6.29404
5.91513
5.53117
5.17458
4.87506
4.59768
4.37851
4.20931
4.03659
3.86386
3.69172
3.51877
3.34438
3.18112
3.02387
2.87401
2.7575
2.67771
2.58985
2.5006
2.44041
2.43295
2.46711
2.65402
3.18694
4.07278
4.79376
4.98143
4.96172
4.92495
4.87832
4.81927
4.73711
4.62781
4.49081
4.33859
4.17536
4.00845
3.8399
3.6762
3.51965
3.37638
3.23592
3.10933
2.99469
2.88372
2.77303
2.69071
2.59821
2.50971
2.43005
2.36018
2.28959
2.21858
2.15044
2.09744
2.05596
2.06313
2.096
2.19942
2.40683
2.75733
3.26001
3.90654
4.24889
4.25159
4.10927
3.99346
3.94091
3.95742
3.96477
3.95736
3.93239
3.89254
3.85208
3.81707
3.78593
3.75329
3.71589
3.67869
3.64612
3.61734
3.58961
3.56101
3.52986
3.49652
3.46031
3.42192
3.38454
3.34889
3.31399
3.2793
3.24478
3.21003
3.17476
3.13862
3.10109
3.06027
3.01103
2.97485
6.35002
5.98826
5.62524
5.26301
4.96187
4.68401
4.44894
4.28276
4.11514
3.94037
3.77345
3.60794
3.44192
3.27237
3.10657
2.95012
2.82844
2.72169
2.62125
2.55067
2.53061
2.56638
2.72768
3.19486
4.0447
4.84548
5.06776
5.02731
4.97923
4.94086
4.90496
4.85909
4.79175
4.69983
4.58457
4.45135
4.30541
4.14529
3.98745
3.83077
3.68194
3.52894
3.38673
3.2631
3.13821
3.01325
2.91226
2.80925
2.70227
2.60937
2.52891
2.45723
2.38185
2.30657
2.23289
2.16175
2.0948
2.04602
2.02936
2.06044
2.12125
2.25676
2.50088
2.88629
3.4341
3.99807
4.21961
4.12701
3.96619
3.8875
3.87592
3.89059
3.90137
3.88632
3.84763
3.80285
3.76217
3.72847
3.69694
3.6656
3.63606
3.60793
3.58087
3.55336
3.52323
3.49006
3.45443
3.41589
3.37691
3.3399
3.30419
3.26876
3.23345
3.19794
3.16195
3.12504
3.08661
3.04491
2.99451
2.95716
6.38019
6.07449
5.73391
5.37757
5.05738
4.78264
4.52738
4.34775
4.191
4.01417
3.83799
3.67661
3.5224
3.36295
3.19494
3.02875
2.89725
2.76776
2.67505
2.63502
2.6621
2.80843
3.22681
4.03178
4.92401
5.22638
5.15342
5.0696
5.01457
4.97763
4.9381
4.89034
4.83011
4.75418
4.66172
4.54669
4.41491
4.26821
4.11683
3.96323
3.80657
3.65736
3.52619
3.39542
3.25641
3.13159
3.0171
2.90447
2.80793
2.71345
2.62157
2.53954
2.46189
2.38832
2.30758
2.22656
2.15659
2.09506
2.05478
2.03535
2.03451
2.05897
2.13079
2.29131
2.59793
3.02393
3.62304
4.02563
4.08361
3.98291
3.87721
3.83057
3.83036
3.83468
3.8187
3.78951
3.74765
3.70414
3.6686
3.64209
3.6197
3.59571
3.57099
3.54341
3.5124
3.47788
3.4414
3.40372
3.3651
3.32724
3.29088
3.25502
3.21921
3.18308
3.14641
3.10864
3.06941
3.027
2.97561
2.93716
6.41604
6.12382
5.8099
5.48171
5.15317
4.88311
4.61886
4.40459
4.25453
4.08507
3.90317
3.73427
3.58465
3.4373
3.28354
3.11842
2.96518
2.81804
2.76986
2.77575
2.89746
3.27766
4.03854
5.01406
5.43403
5.34233
5.22939
5.14002
5.07452
5.01998
4.96773
4.91371
4.85642
4.78964
4.71019
4.614
4.50135
4.37482
4.23418
4.08333
3.93026
3.78592
3.64154
3.49599
3.36657
3.24326
3.11983
3.00945
2.90946
2.8119
2.71647
2.6311
2.5497
2.47069
2.39085
2.31353
2.24569
2.18742
2.12697
2.07362
2.0292
2.00566
2.01672
2.06268
2.14796
2.33701
2.6793
3.15678
3.75077
4.01892
4.0002
3.8892
3.79906
3.76115
3.76696
3.75832
3.73956
3.70692
3.66549
3.6282
3.60107
3.57967
3.55842
3.53261
3.50177
3.46741
3.43117
3.39248
3.35249
3.31352
3.27664
3.24031
3.20377
3.16665
3.129
3.09029
3.05009
3.00718
2.95526
2.91581
6.44517
6.17806
5.89223
5.57003
5.24773
4.96666
4.70728
4.46605
4.30018
4.1405
3.9622
3.78595
3.6315
3.49658
3.35274
3.19681
3.02771
2.93165
2.89397
3.00438
3.35161
4.08628
5.10989
5.60667
5.53111
5.42546
5.32398
5.22777
5.1402
5.06777
5.00486
4.94388
4.88302
4.81843
4.74675
4.66265
4.56483
4.45159
4.32728
4.19202
4.05304
3.9071
3.7567
3.61669
3.48763
3.35769
3.23563
3.12117
3.01649
2.91633
2.82202
2.72953
2.64402
2.56215
2.48101
2.40495
2.33063
2.26248
2.20056
2.14386
2.09186
2.0447
2.01796
2.00132
1.99201
2.04345
2.15929
2.43164
2.81596
3.37165
3.8538
3.99609
3.91179
3.79668
3.71879
3.68503
3.68976
3.68262
3.66176
3.62875
3.59374
3.56389
3.53943
3.51495
3.48887
3.45804
3.42173
3.37994
3.33608
3.29506
3.25717
3.22073
3.18408
3.14642
3.10826
3.06898
3.02799
2.98412
2.9311
2.89086
6.37085
6.20887
5.93943
5.66117
5.35406
5.05129
4.78898
4.53428
4.34319
4.18939
4.01992
3.84471
3.68972
3.55309
3.42039
3.25597
3.12452
3.09245
3.13997
3.44342
4.15541
5.20383
5.76486
5.71864
5.63418
5.534
5.42709
5.3192
5.21762
5.12357
5.04126
4.97079
4.90612
4.8402
4.77063
4.69363
4.60661
4.50808
4.39775
4.27734
4.14695
4.01136
3.87207
3.73359
3.59608
3.46514
3.34012
3.22248
3.1125
3.00982
2.91212
2.81637
2.7237
2.63283
2.54869
2.46845
2.38843
2.31996
2.26119
2.20747
2.15411
2.10158
2.04981
2.00077
1.97622
1.95158
1.96528
2.02774
2.19499
2.51023
2.98487
3.60463
3.90279
3.90449
3.79406
3.69499
3.6403
3.628
3.62902
3.60972
3.58076
3.54943
3.51982
3.49432
3.46898
3.43987
3.4049
3.36486
3.32064
3.27753
3.23828
3.20173
3.16558
3.12737
3.08764
3.04705
3.00467
2.95956
2.90563
2.86502
5.85339
6.26892
6.01789
5.72414
5.426
5.12395
4.85644
4.60466
4.38273
4.23558
4.08226
3.91575
3.75316
3.62496
3.49281
3.35616
3.28272
3.33537
3.61185
4.27279
5.33108
5.95998
5.93329
5.85725
5.75023
5.63608
5.52503
5.4162
5.30559
5.19533
5.0941
5.00911
4.93572
4.86471
4.79288
4.71735
4.6365
4.54669
4.44862
4.33977
4.22366
4.09878
3.96913
3.83377
3.69976
3.56759
3.43984
3.31774
3.20241
3.09674
2.99807
2.9044
2.81243
2.72028
2.63065
2.54193
2.45974
2.38987
2.32945
2.27176
2.21379
2.15833
2.10514
2.05422
2.00278
1.94693
1.91264
1.88192
1.93396
2.07645
2.32583
2.67157
3.19913
3.70618
3.87859
3.81762
3.69673
3.61248
3.56992
3.56166
3.54651
3.52878
3.50843
3.48164
3.45243
3.41975
3.38136
3.33974
3.29651
3.25352
3.21359
3.17625
3.13989
3.10171
3.06113
3.01978
2.97689
2.93059
2.87608
2.83508
4.57831
5.82865
5.87159
5.66836
5.43497
5.16479
4.91197
4.6836
4.44595
4.27586
4.14038
3.99195
3.82937
3.7007
3.58396
3.51875
3.54714
3.80496
4.44634
5.51212
6.18568
6.17271
6.09009
5.96256
5.83845
5.72995
5.62541
5.51401
5.39308
5.27085
5.15528
5.05297
4.96541
4.88661
4.80973
4.73262
4.65298
4.56914
4.47922
4.38216
4.27713
4.16397
4.04402
3.91891
3.79017
3.66166
3.53585
3.41486
3.30077
3.19227
3.09016
2.99243
2.89866
2.80825
2.71397
2.62209
2.5406
2.46791
2.40138
2.33908
2.27927
2.22002
2.16969
2.11382
2.0569
1.99184
1.92508
1.88661
1.8715
1.91216
1.9856
2.13877
2.44402
2.86645
3.4349
3.74746
3.78243
3.70578
3.60087
3.52678
3.48884
3.48528
3.47388
3.45896
3.43533
3.40452
3.36228
3.31446
3.26913
3.22791
3.18746
3.14924
3.11312
3.07405
3.0314
2.98848
2.94641
2.90023
2.84559
2.80467
3.38703
5.15258
5.88168
5.73447
5.50308
5.27459
5.02758
4.79878
4.57012
4.37105
4.22429
4.07544
3.91147
3.79016
3.7325
3.77403
4.03159
4.69105
5.79517
6.51265
6.50263
6.39493
6.23014
6.0829
5.96847
5.85816
5.73982
5.61283
5.48242
5.35516
5.23246
5.11606
5.0102
4.91655
4.83187
4.74983
4.6685
4.58554
4.50008
4.40987
4.31387
4.21103
4.10124
3.98542
3.86507
3.74202
3.61996
3.5008
3.38562
3.27491
3.16876
3.0662
2.96591
2.86791
2.77389
2.68442
2.59739
2.51776
2.44913
2.38628
2.32778
2.2714
2.21152
2.15152
2.0925
2.03314
1.97054
1.91021
1.87517
1.85557
1.86147
1.92474
2.03052
2.23636
2.55294
3.02755
3.53475
3.74756
3.71508
3.5945
3.49772
3.43989
3.41751
3.41298
3.40492
3.38158
3.34099
3.29053
3.23969
3.19541
3.15517
3.11506
3.07899
3.0414
2.99658
2.95151
2.90956
2.86637
2.8133
2.77286
2.37732
4.0817
5.49297
5.82122
5.60662
5.39331
5.15016
4.90728
4.68537
4.47694
4.31905
4.17211
4.01982
3.92794
3.97433
4.25363
4.9486
6.0977
6.88957
6.86969
6.73021
6.51526
6.33893
6.21334
6.09147
5.96426
5.82855
5.69389
5.56306
5.43441
5.30575
5.17983
5.06017
4.95108
4.85327
4.76376
4.67796
4.59384
4.50911
4.4224
4.33193
4.2366
4.13564
4.02928
3.91829
3.80428
3.68913
3.57513
3.46341
3.35543
3.25145
3.15037
3.05057
2.9507
2.85283
2.75615
2.66634
2.58564
2.51649
2.45015
2.38799
2.3277
2.26651
2.20647
2.14368
2.08344
2.02284
1.96959
1.91977
1.87861
1.85719
1.85901
1.87261
1.93132
2.08337
2.34329
2.72095
3.24043
3.58237
3.64361
3.58401
3.48264
3.40638
3.36131
3.34574
3.33558
3.3109
3.26851
3.21695
3.16588
3.12045
3.07863
3.04046
3.00322
2.96079
2.916
2.87378
2.83283
2.78244
2.74309
1.5572
2.77347
4.49592
5.60548
5.65651
5.47384
5.26452
5.02768
4.80169
4.5683
4.36107
4.23914
4.17407
4.18991
4.47074
5.21781
6.4755
7.33821
7.30326
7.13488
6.86263
6.64688
6.50254
6.36601
6.22477
6.07763
5.93179
5.79261
5.65673
5.52137
5.3874
5.25502
5.12661
5.00435
4.89089
4.78735
4.69264
4.60393
4.51829
4.43226
4.3447
4.25413
4.15999
4.06128
3.95955
3.85438
3.74817
3.64122
3.5348
3.42983
3.32637
3.2241
3.12293
3.02055
2.9179
2.81841
2.72789
2.64761
2.57333
2.50398
2.43631
2.37178
2.31168
2.25019
2.18887
2.12788
2.0704
2.01725
1.96987
1.92618
1.88513
1.85616
1.84273
1.83431
1.87754
1.98189
2.1618
2.47043
2.88174
3.34334
3.55179
3.53882
3.4601
3.36315
3.30039
3.27189
3.25566
3.23238
3.18847
3.13462
3.0807
3.03459
2.9942
2.95935
2.92289
2.88203
2.83924
2.79876
2.75096
2.71262
1.12642
1.84452
3.34157
4.96026
5.67736
5.56557
5.35782
5.14633
4.92409
4.68048
4.447
4.34044
4.40099
4.69746
5.48923
6.84414
7.80964
7.75911
7.53435
7.22852
6.98881
6.82593
6.67013
6.50998
6.34287
6.17985
6.02717
5.88113
5.73808
5.59739
5.45815
5.3199
5.18401
5.05216
4.9265
4.8096
4.70328
4.60712
4.51708
4.4294
4.34134
4.25253
4.16183
4.06901
3.97423
3.8779
3.78044
3.68212
3.58273
3.48233
3.38125
3.27949
3.17627
3.07131
2.96802
2.87095
2.78134
2.7001
2.62444
2.55394
2.48677
2.42159
2.35791
2.29665
2.23466
2.17364
2.11631
2.06638
2.0241
1.98047
1.94002
1.90011
1.85977
1.82821
1.80312
1.82474
1.8873
2.00867
2.22542
2.57252
3.04246
3.36996
3.46885
3.43011
3.34057
3.25348
3.20306
3.17151
3.13354
3.08551
3.04003
2.99937
2.95913
2.92031
2.88372
2.84551
2.80577
2.76493
2.71721
2.67881
1.03557
1.30303
2.39393
3.92308
5.22995
5.58266
5.43337
5.21506
4.98128
4.74574
4.60344
4.60971
4.92981
5.80346
7.29185
8.368
8.2932
7.99895
7.63662
7.37869
7.20725
7.03784
6.8579
6.66805
6.47926
6.30399
6.1401
5.98352
5.83229
5.68467
5.53922
5.39546
5.25362
5.11494
4.98084
4.85243
4.73302
4.62512
4.52766
4.4359
4.34635
4.25696
4.1672
4.07729
3.98766
3.89788
3.80847
3.71855
3.62724
3.53421
3.43918
3.34227
3.24243
3.13933
3.03703
2.93932
2.84905
2.76653
2.68974
2.61702
2.54783
2.48038
2.41601
2.35296
2.29132
2.23049
2.17261
2.12029
2.07061
2.02922
1.98591
1.942
1.8961
1.85256
1.8146
1.78775
1.7941
1.80983
1.88194
2.04553
2.30747
2.68956
3.11164
3.33012
3.34839
3.29829
3.21024
3.12174
3.06404
3.02852
2.99169
2.95753
2.9221
2.88326
2.84265
2.80379
2.76687
2.72564
2.6778
2.63977
1.00985
1.05961
1.48448
2.55551
4.05784
5.11319
5.30552
5.16015
4.95642
4.81652
4.85284
5.18981
6.13413
7.77498
8.94832
8.82521
8.44519
8.0132
7.72926
7.56271
7.39269
7.20551
7.00396
6.79475
6.59484
6.40659
6.22971
6.06185
5.90115
5.74596
5.59433
5.44535
5.2989
5.15544
5.01568
4.88055
4.75183
4.63339
4.52834
4.43214
4.33959
4.24759
4.15682
4.06857
3.98336
3.90033
3.81791
3.7349
3.65044
3.56381
3.47442
3.38181
3.28471
3.18366
3.08285
2.98642
2.89684
2.81397
2.73636
2.6631
2.593
2.52562
2.46039
2.39817
2.33819
2.2788
2.22198
2.16667
2.11758
2.072
2.02974
1.98759
1.94605
1.90516
1.86277
1.81956
1.78358
1.76397
1.7598
1.80138
1.87905
2.07502
2.37747
2.76717
3.09952
3.24011
3.21567
3.13028
3.03323
2.96824
2.92863
2.90813
2.88
2.84906
2.80892
2.76236
2.72017
2.67672