/*--------------------------------*- C++ -*----------------------------------*\
| =========                 |                                                 |
| \\      /  F ield         | OpenFOAM: The Open Source CFD Toolbox           |
|  \\    /   O peration     | Version:  v2106                                 |
|   \\  /    A nd           | Website:  www.openfoam.com                      |
|    \\/     M anipulation  |                                                 |
\*---------------------------------------------------------------------------*/
FoamFile
{
    version     2.0;
    format      ascii;
    arch        "LSB;label=32;scalar=64";
    class       surfaceScalarField;
    location    "18";
    object      phi;
}
// * * * * * * * * * * * * * * * * * * * * * * * * * * * * * * * * * * * * * //

dimensions      [1 0 -1 0 0 0 0];

oriented        oriented;

internalField   nonuniform List<scalar> 
10325
(
0.0084507
-2.6563e-17
0.0084507
3.52366e-17
0.0084507
4.9361e-16
0.0084507
1.98648e-15
0.0084507
3.96165e-14
0.0084507
1.61667e-13
0.0084507
3.12458e-12
0.0084507
1.42853e-11
0.00845067
2.41155e-10
0.00845041
1.33529e-09
0.00844811
1.82907e-08
0.00842787
1.28263e-07
0.0082618
1.33382e-06
0.00743492
1.44128e-05
0.00646825
2.29478e-05
0.00605997
0.000858811
0.00701653
0.000544088
0.00640309
0.000612307
0.00567691
0.000667369
0.00496125
0.000744904
0.00414045
0.000820413
0.00324061
0.000899559
0.00226526
0.000980667
0.00120171
0.00106846
0.00120212
0.0084507
-4.08744e-17
0.0084507
5.50233e-17
0.0084507
1.03487e-15
0.0084507
2.25416e-15
0.0084507
8.50394e-14
0.0084507
1.54015e-13
0.0084507
6.82887e-12
0.0084507
1.39978e-11
0.00845067
5.31491e-10
0.00845042
1.66795e-09
0.00844819
3.95172e-08
0.00842853
2.14797e-07
0.00826744
2.8615e-06
0.00744844
2.93852e-05
0.00646938
5.62036e-05
0.00599235
0.00171588
0.0069588
0.00114738
0.00634363
0.00122791
0.00560091
0.00135186
0.00490158
0.00147538
0.0040958
0.00162649
0.003193
0.0018015
0.00219801
0.0019825
0.00111979
0.00215224
0.00232339
0.0084507
-4.50215e-17
0.0084507
6.79795e-17
0.0084507
1.65669e-15
0.0084507
-5.81647e-16
0.0084507
1.42678e-13
0.0084507
-3.13689e-13
0.0084507
1.15208e-11
0.0084507
-4.21358e-11
0.00845067
8.67546e-10
0.00845044
-1.31486e-09
0.00844837
6.3717e-08
0.00842999
1.44195e-07
0.00828018
4.33244e-06
0.00748264
4.21664e-05
0.00649501
8.78713e-05
0.0059295
0.00247309
0.00692373
0.00190828
0.00629586
0.00185981
0.00554122
0.0020542
0.00483799
0.00221126
0.00403617
0.00243162
0.00314411
0.00269799
0.00217237
0.00296611
0.00111193
0.00322448
0.00344429
0.0084507
-7.43763e-17
0.0084507
1.1132e-16
0.0084507
2.10083e-15
0.0084507
-4.55419e-16
0.0084507
1.93143e-13
0.0084507
-3.16278e-13
0.0084507
1.75462e-11
0.0084507
-1.06632e-10
0.00845068
1.44061e-09
0.00845047
-1.8219e-08
0.00844863
9.08087e-08
0.00843214
-3.72046e-07
0.00829826
5.78608e-06
0.00753385
5.1922e-05
0.00652905
0.000122705
0.00590092
0.00295135
0.00702182
0.00287123
0.00636427
0.00252324
0.00558814
0.00278114
0.00485347
0.0029796
0.00405445
0.00323505
0.00318439
0.00357143
0.00222191
0.00393899
0.00114474
0.00431207
0.00459607
0.0084507
-9.81474e-17
0.0084507
5.91974e-17
0.0084507
1.53016e-15
0.0084507
-1.45773e-14
0.0084507
2.69537e-13
0.0084507
1.28364e-13
0.0084507
2.01706e-11
0.0084507
-2.41623e-11
0.00845068
1.80884e-09
0.00845049
-1.69133e-08
0.00844889
1.4228e-07
0.00843492
-1.84531e-06
0.00832125
6.89271e-06
0.00760517
5.72824e-05
0.00658849
0.000153108
0.00602298
0.00319186
0.007163
0.00393493
0.0064739
0.00321555
0.00567473
0.00353694
0.00493909
0.00376227
0.00417967
0.0040051
0.00328598
0.00447395
0.00231387
0.00492886
0.00119663
0.00544635
0.00580747
0.0084507
-1.28071e-16
0.0084507
9.1073e-18
0.0084507
-4.63315e-15
0.0084507
-2.67593e-14
0.0084507
1.36616e-13
0.0084507
-6.36128e-13
0.0084507
2.54755e-11
0.0084507
5.71925e-11
0.00845069
1.7764e-09
0.00845052
2.26658e-09
0.00844924
1.42313e-07
0.0084365
-1.16704e-06
0.00834312
6.61749e-06
0.00768995
5.58611e-05
0.00668249
0.000152999
0.00628772
0.00310126
0.00742338
0.00510303
0.00667639
0.00396298
0.00587181
0.00429395
0.00508978
0.00459096
0.00430166
0.00479932
0.00341424
0.00536875
0.00242469
0.00593218
0.00127214
0.00661772
0.00710179
0.0084507
-1.06713e-16
0.0084507
6.47973e-16
0.0084507
-3.06759e-15
0.0084507
2.87314e-14
0.0084507
-5.25782e-13
0.0084507
-1.29352e-12
0.0084507
2.25117e-11
0.0084507
1.36944e-11
0.00845069
1.23329e-09
0.00845057
4.22849e-09
0.00844976
7.68265e-08
0.00843861
4.77773e-07
0.00836598
5.11206e-06
0.00779027
4.77042e-05
0.00677345
0.000153683
0.00663956
0.0025351
0.00799284
0.00618257
0.00713894
0.00482194
0.0062853
0.00510399
0.00545567
0.0054871
0.00469389
0.00558075
0.00381304
0.0062753
0.00270119
0.00707678
0.0014885
0.00785579
0.00862415
0.0084507
5.87638e-17
0.0084507
-4.1365e-16
0.0084507
1.59031e-15
0.0084507
3.35799e-14
0.0084507
3.41352e-14
0.0084507
1.43947e-12
0.0084507
-5.71851e-12
0.0084507
8.37078e-12
0.0084507
7.3604e-10
0.00845057
4.80009e-09
0.00845001
5.69271e-08
0.00844099
4.48809e-07
0.00838288
4.49223e-06
0.00787045
4.22215e-05
0.00680829
0.000210031
0.00664291
0.00194207
0.00841173
0.00685828
0.00757454
0.00566334
0.00678592
0.00584839
0.00594742
0.0063864
0.00508651
0.00647566
0.00405355
0.00731697
0.00298038
0.00818258
0.0017066
0.00916221
0.0104089
0.0084507
1.10751e-16
0.0084507
-1.17948e-15
0.0084507
-1.55166e-15
0.0084507
2.6533e-14
0.0084507
8.7819e-14
0.0084507
1.81101e-12
0.0084507
-3.34418e-11
0.0084507
1.22591e-11
0.0084507
4.74619e-10
0.00845059
5.10765e-09
0.0084502
4.39292e-08
0.00844287
4.19469e-07
0.00839886
3.75695e-06
0.00796801
3.5384e-05
0.00694366
0.000235066
0.00658404
0.00151848
0.00852939
0.00725787
0.00792911
0.00626466
0.00723646
0.00650595
0.00651787
0.00713594
0.00568031
0.00737083
0.00479725
0.00825647
0.00377208
0.00926765
0.00251429
0.0104719
0.0130906
0.0084507
2.31206e-17
0.0084507
1.25938e-15
0.0084507
6.44626e-15
0.0084507
-4.7387e-15
0.0084507
2.67346e-13
0.0084507
1.01647e-12
0.0084507
2.46055e-11
0.0084507
1.99378e-10
0.0084507
-7.04184e-11
0.0084506
8.41461e-09
0.0084504
2.11644e-08
0.00844369
5.48145e-07
0.00841226
2.90581e-06
0.00810531
-5.10619e-05
0.00715365
0.000255038
0.00657489
0.00127815
0.00848909
0.00761075
0.00821327
0.00653759
0.007763
0.00696439
0.00711213
0.00781963
0.00629512
0.00821684
0.00542391
0.00915567
0.00439845
0.0103458
0.00271015
0.0121883
0.0163185
0.0084507
8.78475e-17
0.0084507
4.00613e-17
0.0084507
7.44104e-15
0.0084507
-7.65718e-17
0.0084507
2.92769e-13
0.0084507
2.32124e-12
0.0084507
9.23956e-12
0.0084507
1.66142e-10
0.0084507
-4.39426e-11
0.00845065
7.26379e-09
0.00845035
1.99526e-08
0.0084465
4.85047e-07
0.00841777
2.7625e-06
0.00815232
-5.41847e-05
0.00724516
0.000243921
0.00655825
0.00109625
0.00822204
0.00762845
0.00835714
0.00688267
0.00816239
0.00722407
0.00766568
0.00829616
0.00698918
0.00893452
0.00630521
0.00992186
0.00594256
0.0109115
0.00584064
0.0126665
0.013881
0.00909715
0.0084507
-2.85416e-17
0.0084507
-1.07878e-16
0.0084507
3.26402e-15
0.0084507
5.97214e-15
0.0084507
2.64754e-13
0.0084507
8.81502e-13
0.0084507
6.10537e-12
0.0084507
2.52443e-11
0.0084507
2.22794e-10
0.00845069
2.4577e-09
0.00845037
1.19146e-08
0.00844902
2.46034e-07
0.00842811
5.54882e-07
0.00821148
2.05077e-05
0.00736674
0.000191926
0.00662644
0.00090715
0.00762042
0.00757905
0.0081643
0.00745578
0.00807349
0.00736677
0.00804516
0.00833271
0.00768719
0.00928201
0.00733089
0.0102829
0.00750319
0.0108039
0.00801681
0.0119325
0.0123376
0.0103867
0.0084507
-6.30193e-17
0.0084507
4.9548e-17
0.0084507
7.07442e-17
0.0084507
-2.61103e-16
0.0084507
1.0173e-13
0.0084507
2.07311e-13
0.0084507
4.2497e-12
0.0084507
1.15882e-11
0.0084507
9.90446e-11
0.00845068
2.50398e-09
0.00845051
4.85402e-09
0.00844906
2.03084e-07
0.00843558
-1.59413e-07
0.00833645
1.32344e-05
0.00769705
0.000128219
0.00690781
0.000640301
0.0076098
0.00665099
0.00852807
0.00867403
0.00811583
0.00771816
0.00808836
0.00834513
0.00817307
0.00922793
0.00832676
0.0101507
0.00861927
0.0106748
0.00920605
0.0113041
0.0113801
0.0107714
0.0084507
-2.40964e-17
0.0084507
7.29939e-17
0.0084507
-8.6316e-16
0.0084507
5.6758e-16
0.0084507
7.44931e-14
0.0084507
-3.1305e-13
0.0084507
1.90621e-12
0.0084507
-1.72186e-11
0.0084507
2.40609e-11
0.0084507
1.72661e-09
0.00845058
9.6867e-09
0.00844991
1.22722e-07
0.00843992
9.07466e-07
0.00837858
9.01999e-06
0.00787267
8.35787e-05
0.00703657
0.000401779
0.0077485
0.00491193
0.00919089
0.009956
0.0086623
0.00827168
0.00840359
0.00854104
0.00851875
0.00911817
0.00885662
0.00989465
0.00934426
0.0103494
0.00991119
0.0108356
0.0105337
0.011231
0.0084507
3.79471e-19
0.0084507
9.53285e-17
0.0084507
1.11844e-15
0.0084507
1.81614e-14
0.0084507
-7.72695e-15
0.0084507
5.15454e-13
0.0084507
2.87506e-13
0.0084507
2.96635e-11
0.0084507
3.21514e-10
0.00845071
-7.92939e-11
0.00845057
1.1288e-08
0.00845041
4.62267e-08
0.00844307
2.79915e-07
0.00840952
6.49746e-06
0.00809039
-3.85428e-05
0.0071652
0.000386412
0.00765754
0.00324513
0.00997066
0.0104296
0.00944693
0.00891643
0.00910056
0.00900633
0.00897584
0.009248
0.00919624
0.0097195
0.00966777
0.0099819
0.0102749
0.0103224
0.00988603
0.0113011
0.0084507
-2.00577e-18
0.0084507
1.58836e-17
0.0084507
2.57959e-16
0.0084507
1.14438e-14
0.0084507
-2.82427e-14
0.0084507
3.78316e-13
0.0084507
-1.10687e-12
0.0084507
1.56261e-11
0.0084507
2.23096e-10
0.0084507
7.30832e-11
0.00845065
9.63179e-09
0.00845027
4.17561e-08
0.00844679
1.23614e-07
0.00841895
5.27592e-06
0.00818706
-5.60183e-05
0.00734138
0.000336878
0.00736271
0.0020378
0.0100337
0.00925123
0.0102269
0.00973249
0.00990201
0.00955606
0.00959734
0.00953951
0.00959927
0.00968167
0.0098981
0.00974228
0.0104736
0.00985068
0.00948645
0.011188
0.0084507
2.33103e-18
0.0084507
3.2255e-17
0.0084507
3.3117e-16
0.0084507
-8.98587e-16
0.0084507
1.47249e-14
0.0084507
1.89281e-14
0.0084507
5.56951e-13
0.0084507
1.34292e-12
0.0084507
1.10653e-10
0.0084507
4.85666e-10
0.00845071
1.81151e-09
0.00845036
3.60735e-08
0.00845012
2.10347e-07
0.00843287
2.53869e-06
0.00828477
1.94163e-05
0.00761058
0.000192282
0.00724538
0.00120439
0.00898152
0.00750239
0.0103613
0.0103857
0.0101262
0.0098568
0.00996696
0.00962728
0.00995545
0.00965913
0.0101719
0.009594
0.0105645
0.00953724
0.00919506
0.0111013
0.0084507
1.00289e-18
0.0084507
2.23346e-17
0.0084507
1.99873e-16
0.0084507
6.83047e-17
0.0084507
1.71623e-14
0.0084507
4.77509e-14
0.0084507
1.52993e-12
0.0084507
6.57288e-12
0.0084507
4.05944e-11
0.0084507
4.28403e-10
0.0084507
-3.22143e-10
0.00845055
1.40712e-08
0.00845017
6.62269e-08
0.00844109
8.07135e-07
0.00839286
9.55944e-06
0.00799631
2.37483e-05
0.00731542
0.000782405
0.00850183
0.00513169
0.0109024
0.0108612
0.0106916
0.0100726
0.0106126
0.00986781
0.0105289
0.00974922
0.0106022
0.00959896
0.0108103
0.00942317
0.00898709
0.0111856
0.0084507
1.0842e-19
0.0084507
1.23328e-17
0.0084507
-2.77285e-17
0.0084507
7.36932e-16
0.0084507
1.16592e-15
0.0084507
2.72316e-14
0.0084507
6.16594e-13
0.0084507
3.59172e-12
0.0084507
9.1437e-12
0.0084507
1.4894e-10
0.0084507
4.49646e-10
0.00845064
4.90198e-09
0.00845014
6.78864e-08
0.00844574
2.70156e-07
0.00841
7.1211e-06
0.00813993
-1.69247e-05
0.00739209
0.000504485
0.00814456
0.00308949
0.011246
0.00985838
0.0114776
0.010591
0.0112906
0.0103113
0.0110904
0.00999297
0.0110204
0.00970476
0.0110894
0.0094084
0.00894079
0.011271
0.0084507
9.75782e-19
0.0084507
2.95445e-18
0.0084507
5.51317e-17
0.0084507
3.44451e-16
0.0084507
5.54152e-15
0.0084507
4.54113e-14
0.0084507
6.58747e-14
0.0084507
2.1433e-12
0.0084507
2.43122e-12
0.0084507
1.2542e-10
0.0084507
1.05275e-09
0.00845071
1.61779e-09
0.00845027
5.14465e-08
0.00844984
2.50066e-07
0.00842806
3.08007e-06
0.00827237
3.72439e-05
0.00778371
-5.97631e-07
0.00796466
0.00172256
0.0103728
0.00793371
0.0118732
0.0111617
0.0116779
0.0107604
0.0114593
0.0101585
0.0113502
0.00979859
0.0113718
0.00942547
0.00893649
0.0114875
0.0084507
8.13152e-20
0.0084507
8.67362e-19
0.0084507
1.14654e-17
0.0084507
4.85452e-17
0.0084507
3.28803e-15
0.0084507
2.17104e-14
0.0084507
4.03992e-14
0.0084507
8.92713e-13
0.0084507
-1.89954e-12
0.0084507
6.57051e-11
0.0084507
6.13749e-10
0.00845069
5.95107e-10
0.00845059
1.86591e-08
0.00844971
6.5198e-08
0.00844242
1.25849e-06
0.00838545
2.15364e-05
0.00803377
-0.000131972
0.00744612
0.0010429
0.00903739
0.00511704
0.0119954
0.0110514
0.0119053
0.010912
0.0118643
0.0103859
0.0117274
0.00995179
0.0116876
0.00949709
0.00899257
0.0117299
0.0084507
2.43945e-19
0.0084507
-6.31548e-18
0.0084507
3.51553e-17
0.0084507
3.18186e-16
0.0084507
-1.14898e-16
0.0084507
1.30475e-14
0.0084507
4.32382e-14
0.0084507
7.62932e-13
0.0084507
4.9332e-12
0.0084507
6.32313e-12
0.0084507
3.39815e-10
0.0084507
1.03293e-09
0.00845053
1.90292e-08
0.0084506
1.5754e-07
0.00845084
4.2203e-07
0.00841364
6.19186e-06
0.00810045
6.6727e-05
0.00783431
-0.000153997
0.00885448
0.0030541
0.0120494
0.00935983
0.012728
0.0113973
0.0124229
0.0108794
0.0122172
0.0101638
0.01211
0.00965741
0.00913804
0.0120564
0.0084507
8.13152e-20
0.0084507
-7.37257e-18
0.0084507
1.72388e-17
0.0084507
1.89979e-16
0.0084507
-2.41181e-16
0.0084507
6.45838e-15
0.0084507
1.94636e-14
0.0084507
3.66152e-13
0.0084507
2.30741e-12
0.0084507
1.558e-12
0.0084507
1.70267e-10
0.0084507
2.36242e-10
0.00845069
7.6271e-09
0.00845054
7.92907e-08
0.00844926
1.00974e-07
0.00843965
1.52864e-06
0.00835851
3.83031e-05
0.00796848
-0.000408523
0.00782045
0.00174115
0.00999406
0.00676317
0.0125398
0.0114868
0.012442
0.0109353
0.0125177
0.0102392
0.0124622
0.00981222
0.00929815
0.0124019
0.0084507
8.13152e-20
0.0084507
1.65341e-18
0.0084507
-2.84603e-18
0.0084507
1.87296e-17
0.0084507
8.70885e-17
0.0084507
1.14199e-15
0.0084507
1.0286e-14
0.0084507
5.3709e-14
0.0084507
3.4388e-13
0.0084507
5.44816e-12
0.0084507
2.15105e-11
0.0084507
4.84878e-10
0.00845069
1.88645e-09
0.00845065
1.78169e-08
0.0084498
2.16629e-07
0.00844583
9.9474e-07
0.0084321
9.8189e-06
0.00794217
5.8791e-05
0.00763377
0.000186449
0.00928287
0.00402504
0.0127496
0.0100905
0.0132422
0.0112927
0.0130791
0.0107128
0.0129215
0.0100617
0.00952337
0.0127828
0.0084507
0
0.0084507
1.89735e-18
0.0084507
-3.30682e-18
0.0084507
1.30375e-17
0.0084507
-1.13299e-17
0.0084507
5.16514e-16
0.0084507
3.22653e-15
0.0084507
1.2696e-14
0.0084507
1.13536e-13
0.0084507
3.02592e-12
0.0084507
1.95611e-12
0.0084507
2.31979e-10
0.0084507
3.54634e-10
0.00845068
1.04141e-08
0.00845049
9.23388e-08
0.00844896
2.46869e-07
0.00843558
3.24475e-06
0.0083313
2.89166e-05
0.00797967
-0.00025051
0.00840873
0.00206502
0.0112923
0.00750483
0.0134331
0.011492
0.013332
0.0110303
0.013304
0.010274
0.0097769
0.013155
0.0084507
-2.1684e-19
0.0084507
-2.1684e-19
0.0084507
-1.51788e-18
0.0084507
-2.1684e-19
0.0084507
4.49131e-17
0.0084507
4.3116e-16
0.0084507
8.21093e-16
0.0084507
7.34214e-15
0.0084507
5.31211e-14
0.0084507
5.23179e-13
0.0084507
1.12485e-11
0.0084507
3.95452e-11
0.0084507
6.3984e-10
0.0084507
2.74716e-09
0.00845046
3.89158e-08
0.00845075
2.47014e-07
0.00845253
1.15334e-06
0.00839912
1.06805e-05
0.00797822
8.97249e-05
0.00778168
0.000350752
0.00968955
0.00456457
0.0133858
0.0102098
0.0139088
0.0112948
0.0137437
0.0107875
0.010085
0.0135222
0.0084507
6.23416e-19
0.0084507
4.33681e-19
0.0084507
-9.21572e-19
0.0084507
8.94467e-19
0.0084507
1.57209e-17
0.0084507
2.19361e-16
0.0084507
-2.01391e-16
0.0084507
8.27889e-15
0.0084507
-2.18656e-14
0.0084507
2.46956e-13
0.0084507
5.74729e-12
0.0084507
1.02842e-11
0.0084507
2.83502e-10
0.0084507
6.78715e-10
0.00845068
1.40673e-08
0.00845046
1.15008e-07
0.0084488
3.00536e-07
0.0084345
2.47916e-06
0.00834087
3.69788e-05
0.00805224
-0.000240693
0.00870733
0.00234951
0.0118178
0.00760545
0.0140093
0.011384
0.0139053
0.0110836
0.0102902
0.0138403
0.0084507
4.60786e-19
0.0084507
1.11131e-18
0.0084507
1.46367e-18
0.0084507
3.1984e-18
0.0084507
3.06287e-18
0.0084507
4.40728e-17
0.0084507
4.13759e-16
0.0084507
4.32231e-15
0.0084507
6.5459e-15
0.0084507
2.16761e-13
0.0084507
1.05023e-14
0.0084507
1.22879e-11
0.0084507
6.71275e-12
0.0084507
7.50312e-10
0.0084507
1.72733e-09
0.00845052
4.25121e-08
0.00845083
2.6253e-07
0.00845189
1.31814e-06
0.00840512
6.01803e-06
0.00803146
9.21523e-05
0.00781215
0.000631059
0.00982773
0.00450716
0.0136847
0.00982927
0.0143235
0.0112278
0.0107839
0.0141084
0.0084507
-3.79471e-19
0.0084507
-7.04731e-19
0.0084507
-7.58942e-19
0.0084507
-4.06576e-19
0.0084507
-4.33681e-18
0.0084507
1.39591e-17
0.0084507
1.5851e-16
0.0084507
2.59984e-15
0.0084507
4.97242e-16
0.0084507
1.05382e-13
0.0084507
-7.62432e-13
0.0084507
5.31996e-12
0.0084507
-3.13082e-11
0.0084507
3.18464e-10
0.0084507
-8.05894e-10
0.00845068
1.61318e-08
0.0084505
6.43242e-08
0.00844905
3.97408e-07
0.00843612
-3.49571e-06
0.0083668
3.02439e-05
0.00813033
-6.11287e-05
0.00886975
0.00222309
0.0119312
0.00719048
0.0143344
0.0111083
0.0109144
0.0142406
0.0084507
-3.25261e-19
0.0084507
-9.48677e-19
0.0084507
-1.70762e-18
0.0084507
-2.33103e-18
0.0084507
-2.81893e-18
0.0084507
5.9089e-18
0.0084507
2.87585e-17
0.0084507
4.80898e-16
0.0084507
2.1851e-15
0.0084507
1.92616e-14
0.0084507
3.5194e-14
0.0084507
1.25154e-12
0.0084507
2.35416e-12
0.0084507
6.28677e-11
0.0084507
4.84646e-10
0.0084507
4.8614e-09
0.00845066
-1.4037e-08
0.00845096
2.32175e-07
0.00844672
1.10156e-06
0.00840769
1.98086e-06
0.00814456
9.5922e-05
0.00782579
0.000786459
0.00983391
0.00403469
0.0138187
0.00912037
0.0109746
0.0146986
0.0084507
8.13152e-20
0.0084507
5.42101e-20
0.0084507
-6.50521e-19
0.0084507
-4.60786e-19
0.0084507
-1.40946e-18
0.0084507
1.92446e-18
0.0084507
3.98444e-18
0.0084507
1.1994e-16
0.0084507
7.67236e-16
0.0084507
9.14066e-15
0.0084507
7.08332e-14
0.0084507
4.76594e-13
0.0084507
1.3958e-12
0.0084507
2.98511e-11
0.0084507
9.38242e-11
0.0084507
1.42387e-09
0.00845068
7.62928e-09
0.00845048
7.95175e-08
0.00844978
1.52704e-07
0.00843938
-7.10573e-06
0.00839673
2.76578e-05
0.00821718
8.9054e-05
0.00879794
0.00193672
0.0116084
0.00639244
0.0103754
0.0145177
0.0084507
-2.43945e-19
0.0084507
-4.33681e-19
0.0084507
-1.35525e-19
0.0084507
-8.13152e-20
0.0084507
2.71051e-20
0.0084507
7.86047e-19
0.0084507
5.28549e-18
0.0084507
-2.25243e-17
0.0084507
3.37051e-16
0.0084507
1.68108e-15
0.0084507
3.0828e-14
0.0084507
1.59091e-13
0.0084507
1.39473e-12
0.0084507
1.17985e-11
0.0084507
2.57496e-11
0.0084507
4.52706e-10
0.00845071
2.06831e-10
0.00845078
1.37958e-08
0.00845079
1.38996e-07
0.0084432
6.46175e-07
0.00841228
9.27568e-06
0.00825975
8.20937e-05
0.00783293
0.000872656
0.00958674
0.00336206
0.00783851
0.0135581
0.0084507
-6.50521e-19
0.0084507
-4.60786e-19
0.0084507
-1.21973e-18
0.0084507
-1.5992e-18
0.0084507
-1.89735e-18
0.0084507
-1.87025e-18
0.0084507
-2.6834e-18
0.0084507
-1.31731e-17
0.0084507
1.51138e-16
0.0084507
-6.85487e-17
0.0084507
7.08876e-15
0.0084507
6.59905e-14
0.0084507
1.31246e-13
0.0084507
3.02019e-12
0.0084507
1.04779e-11
0.0084507
1.2924e-10
0.0084507
7.04679e-10
0.00845068
2.08731e-09
0.00845051
6.07832e-08
0.00844928
2.23154e-08
0.00844029
2.25895e-06
0.0084186
-1.34985e-05
0.00829677
0.00023339
0.00928843
0.000594888
0.00548618
0.0116529
0.0084507
-4.87891e-19
0.0084507
4.33681e-19
0.0084507
-1.89735e-19
0.0084507
-1.89735e-19
0.0084507
-5.14996e-19
0.0084507
-1.0842e-19
0.0084507
-1.40946e-18
0.0084507
3.65918e-18
0.0084507
2.66714e-17
0.0084507
1.12079e-16
0.0084507
-7.99464e-16
0.0084507
1.43396e-14
0.0084507
1.18313e-14
0.0084507
6.55161e-13
0.0084507
2.972e-12
0.0084507
2.71376e-11
0.0084507
2.74552e-10
0.0084507
2.11915e-09
0.00845068
1.91594e-08
0.00845029
1.55086e-07
0.00844843
1.40196e-06
0.00843998
-3.26235e-05
0.0084183
9.02036e-05
0.00826505
-0.000352267
0.00292142
0.00957348
0.0084507
-1.0842e-19
0.0084507
4.06576e-19
0.0084507
7.86047e-19
0.0084507
5.42101e-19
0.0084507
5.14996e-19
0.0084507
2.00577e-18
0.0084507
2.84603e-18
0.0084507
3.06287e-18
0.0084507
1.1357e-17
0.0084507
2.63732e-17
0.0084507
3.83672e-16
0.0084507
6.58057e-16
0.0084507
6.78936e-15
0.0084507
6.63328e-15
0.0084507
9.6122e-13
0.0084507
-6.70711e-13
0.0084507
8.55129e-11
0.00845071
2.98156e-10
0.00845069
5.6208e-09
0.0084508
-2.48422e-08
0.00845004
3.1634e-07
0.00842357
-3.58612e-06
0.00850115
1.86835e-05
0.00805949
8.92633e-05
0.000969264
0.00789757
0.0084507
4.60786e-19
0.0084507
2.43945e-19
0.0084507
2.71051e-20
0.0084507
3.79471e-19
0.0084507
8.40257e-19
0.0084507
1.13841e-18
0.0084507
1.78893e-18
0.0084507
1.49078e-18
0.0084507
4.17418e-18
0.0084507
1.97596e-17
0.0084507
1.43711e-16
0.0084507
3.44803e-16
0.0084507
7.6021e-15
0.0084507
4.27306e-14
0.0084507
5.56686e-13
0.0084507
1.5298e-12
0.0084507
2.61474e-11
0.0084507
1.88994e-10
0.0084507
2.52426e-09
0.00845067
-3.69369e-08
0.00845087
1.43263e-07
0.00844725
2.67307e-07
0.00843749
6.05852e-06
0.00842387
1.5673e-05
0.000155289
0.0083637
0.0084507
1.0842e-19
0.0084507
3.25261e-19
0.0084507
3.52366e-19
0.0084507
9.75782e-19
0.0084507
1.0842e-18
0.0084507
5.96311e-19
0.0084507
2.71051e-20
0.0084507
7.04731e-19
0.0084507
2.46656e-18
0.0084507
6.93889e-18
0.0084507
5.54027e-17
0.0084507
1.44795e-16
0.0084507
2.55744e-15
0.0084507
8.59642e-15
0.0084507
1.55673e-13
0.0084507
3.94535e-13
0.0084507
-7.80949e-13
0.0084507
4.30859e-11
0.0084507
4.7061e-10
0.00845068
2.48579e-09
0.00845072
3.40564e-08
0.00845051
4.8805e-08
0.00845282
1.25085e-06
0.00842846
9.19139e-06
7.38468e-05
0.00841486
0.0084507
-2.43945e-19
0.0084507
-3.00927e-35
0.0084507
3.25261e-19
0.0084507
8.13152e-19
0.0084507
7.31836e-19
0.0084507
2.98156e-19
0.0084507
-1.0842e-19
0.0084507
-4.33681e-19
0.0084507
-6.23416e-19
0.0084507
2.1413e-18
0.0084507
2.09251e-17
0.0084507
1.48861e-16
0.0084507
1.50631e-15
0.0084507
2.83091e-15
0.0084507
7.60278e-14
0.0084507
2.9385e-13
0.0084507
2.06288e-12
0.0084507
8.77505e-12
0.0084507
1.83827e-10
0.0084507
6.69832e-11
0.0084507
1.07646e-08
0.00845063
5.80203e-08
0.00845038
1.44692e-07
0.00844846
2.03249e-06
6.68264e-06
0.0084555
0.0084507
4.06576e-19
0.0084507
6.23416e-19
0.0084507
6.23416e-19
0.0084507
3.79471e-19
0.0084507
-2.40741e-35
0.0084507
-6.23416e-19
0.0084507
-1.21973e-18
0.0084507
-1.27394e-18
0.0084507
-2.49366e-18
0.0084507
-3.11708e-18
0.0084507
7.58942e-19
0.0084507
6.60279e-17
0.0084507
5.2947e-16
0.0084507
8.49418e-16
0.0084507
2.23832e-14
0.0084507
9.71725e-14
0.0084507
2.38301e-13
0.0084507
7.49082e-12
0.0084507
3.61693e-11
0.0084507
-2.79561e-10
0.0084507
4.02419e-09
0.0084507
1.73231e-08
0.00845061
-4.78367e-08
0.00844965
8.54355e-07
1.35141e-08
0.00844081
0.0084507
1.6263e-19
0.0084507
1.0842e-19
0.0084507
1.89735e-19
0.0084507
-5.42101e-19
0.0084507
-5.69206e-19
0.0084507
-1.11131e-18
0.0084507
-1.65341e-18
0.0084507
-1.5992e-18
0.0084507
-2.11419e-18
0.0084507
-2.27682e-18
0.0084507
-8.13152e-20
0.0084507
5.93601e-18
0.0084507
1.47614e-16
0.0084507
3.6581e-16
0.0084507
4.73078e-15
0.0084507
2.86479e-14
0.0084507
2.41433e-13
0.0084507
1.06696e-12
0.0084507
2.36888e-12
0.0084507
9.23679e-11
0.00845071
7.81194e-10
0.0084507
3.03941e-09
0.00845069
1.9808e-08
0.00845041
1.89305e-07
1.30379e-06
0.00844743
0.0084507
-2.43945e-19
0.0084507
-7.86047e-19
0.0084507
-3.52366e-19
0.0084507
2.71051e-20
0.0084507
2.1684e-19
0.0084507
2.98156e-19
0.0084507
2.98156e-19
0.0084507
2.71051e-19
0.0084507
8.13152e-19
0.0084507
1.35525e-18
0.0084507
3.49655e-18
0.0084507
3.06287e-18
0.0084507
1.41217e-17
0.0084507
1.70084e-16
0.0084507
1.39456e-15
0.0084507
9.60947e-15
0.0084507
6.30278e-14
0.0084507
5.99206e-13
0.0084507
4.02484e-12
0.0084507
1.40602e-11
0.0084507
2.40441e-10
0.00845071
9.37595e-10
0.00845069
7.20886e-09
0.00845075
4.94189e-08
3.18821e-07
0.00845029
0.0084507
4.60786e-19
0.0084507
4.06576e-19
0.0084507
6.50521e-19
0.0084507
8.67362e-19
0.0084507
1.0842e-18
0.0084507
1.40946e-18
0.0084507
1.0842e-18
0.0084507
1.21973e-18
0.0084507
6.23416e-19
0.0084507
6.23416e-19
0.0084507
9.75782e-19
0.0084507
2.11419e-18
0.0084507
-1.98951e-17
0.0084507
7.07442e-17
0.0084507
2.32643e-16
0.0084507
1.63397e-15
0.0084507
1.43787e-14
0.0084507
1.09324e-13
0.0084507
9.48379e-13
0.0084507
7.55579e-12
0.0084507
4.56203e-11
0.0084507
3.46398e-10
0.00845071
3.12681e-09
0.00845073
8.11663e-09
1.01779e-07
0.00845086
0.0084507
1.0842e-19
0.0084507
-1.0842e-19
0.0084507
-5.14996e-19
0.0084507
-1.32815e-18
0.0084507
-8.94467e-19
0.0084507
-5.42101e-19
0.0084507
-7.31836e-19
0.0084507
-8.13152e-19
0.0084507
-1.38236e-18
0.0084507
-1.11131e-18
0.0084507
-6.77626e-19
0.0084507
-2.00577e-18
0.0084507
5.42101e-20
0.0084507
1.77267e-17
0.0084507
1.00777e-16
0.0084507
3.83997e-16
0.0084507
4.67099e-15
0.0084507
3.18657e-14
0.0084507
2.8788e-13
0.0084507
1.4763e-12
0.0084507
1.56591e-11
0.0084507
9.00331e-11
0.0084507
6.02657e-10
0.0084507
3.00454e-09
3.24967e-08
0.00845069
0.0084507
-4.06576e-19
0.0084507
-9.75782e-19
0.0084507
-8.40257e-19
0.0084507
-1.32815e-18
0.0084507
-1.43657e-18
0.0084507
-1.30104e-18
0.0084507
-1.0842e-18
0.0084507
-1.32815e-18
0.0084507
-1.38236e-18
0.0084507
-9.48677e-19
0.0084507
-5.42101e-19
0.0084507
-1.11131e-18
0.0084507
1.35525e-19
0.0084507
-1.11131e-18
0.0084507
2.29851e-17
0.0084507
1.2837e-16
0.0084507
5.31367e-16
0.0084507
4.03545e-15
0.0084507
7.55512e-14
0.0084507
2.99244e-13
0.0084507
3.65018e-12
0.0084507
1.7927e-11
0.0084507
-6.65659e-11
0.00845071
1.10253e-09
1.60673e-09
0.0084507
0.0084507
-1.35525e-19
0.0084507
-2.71051e-19
0.0084507
-1.6263e-19
0.0084507
-2.71051e-20
0.0084507
1.0842e-19
0.0084507
-2.98156e-19
0.0084507
-2.71051e-19
0.0084507
-3.25261e-19
0.0084507
-2.71051e-19
0.0084507
-8.13152e-19
0.0084507
-1.00289e-18
0.0084507
-1.30104e-18
0.0084507
-1.46367e-18
0.0084507
-6.23416e-18
0.0084507
7.15573e-18
0.0084507
2.03559e-17
0.0084507
-6.17995e-18
0.0084507
1.0182e-15
0.0084507
2.14791e-14
0.0084507
7.6582e-14
0.0084507
7.51258e-13
0.0084507
4.03404e-12
0.0084507
2.78488e-11
0.0084507
2.8579e-10
-7.05353e-10
0.00845071
0.0084507
2.43945e-19
0.0084507
1.89735e-19
0.0084507
1.6263e-19
0.0084507
1.35525e-19
0.0084507
1.89735e-19
0.0084507
-5.96311e-19
0.0084507
-9.48677e-19
0.0084507
-1.24683e-18
0.0084507
-1.70762e-18
0.0084507
-2.00577e-18
0.0084507
-2.35814e-18
0.0084507
-2.62919e-18
0.0084507
-2.73761e-18
0.0084507
-2.1684e-18
0.0084507
-1.21973e-18
0.0084507
7.34547e-18
0.0084507
-1.35444e-16
0.0084507
-7.63549e-17
0.0084507
4.02003e-15
0.0084507
2.31553e-14
0.0084507
1.34298e-13
0.0084507
1.21151e-12
0.0084507
2.04093e-12
0.0084507
5.44317e-11
1.69185e-10
0.0084507
0.0084507
1.89735e-19
0.0084507
5.96311e-19
0.0084507
5.42101e-19
0.0084507
5.42101e-19
0.0084507
7.31836e-19
0.0084507
2.71051e-19
0.0084507
-3.79471e-19
0.0084507
-5.69206e-19
0.0084507
-5.14996e-19
0.0084507
-9.48677e-19
0.0084507
-1.13841e-18
0.0084507
-1.65341e-18
0.0084507
-2.27682e-18
0.0084507
-2.71051e-18
0.0084507
-2.6563e-18
0.0084507
-3.30682e-18
0.0084507
-2.41235e-17
0.0084507
-7.63007e-17
0.0084507
1.22377e-15
0.0084507
-1.56955e-15
0.0084507
2.58904e-14
0.0084507
-1.878e-13
0.0084507
-7.7362e-13
0.0084507
2.45106e-11
-2.78701e-11
0.0084507
0.0084507
7.52316e-36
0.0084507
2.43945e-19
0.0084507
1.89735e-19
0.0084507
5.42101e-20
0.0084507
1.0842e-19
0.0084507
2.71051e-20
0.0084507
5.42101e-19
0.0084507
8.13152e-19
0.0084507
9.75782e-19
0.0084507
-1.0842e-19
0.0084507
-4.06576e-19
0.0084507
-1.68051e-18
0.0084507
-2.08709e-18
0.0084507
-2.6834e-18
0.0084507
-2.6834e-18
0.0084507
-2.87314e-18
0.0084507
-8.18573e-18
0.0084507
-1.55041e-17
0.0084507
2.56143e-16
0.0084507
2.39609e-17
0.0084507
1.43566e-14
0.0084507
-4.50947e-15
0.0084507
2.55556e-13
0.0084507
7.79765e-12
-1.08035e-11
0.0084507
0.0084507
-3.52366e-19
0.0084507
-7.58942e-19
0.0084507
-1.68051e-18
0.0084507
-2.03288e-18
0.0084507
-2.41235e-18
0.0084507
-2.62919e-18
0.0084507
-2.11419e-18
0.0084507
-2.24972e-18
0.0084507
-1.92446e-18
0.0084507
-1.6263e-18
0.0084507
-1.0842e-18
0.0084507
-6.77626e-19
0.0084507
-4.33681e-19
0.0084507
-1.6263e-19
0.0084507
-3.52366e-19
0.0084507
8.13152e-20
0.0084507
3.46945e-18
0.0084507
2.10064e-17
0.0084507
6.16098e-17
0.0084507
7.11806e-16
0.0084507
3.52523e-15
0.0084507
5.19183e-14
0.0084507
3.03911e-13
0.0084507
2.33227e-12
-2.81826e-12
0.0084507
0.0084507
0.0084507
0.0084507
0.0084507
0.0084507
0.0084507
0.0084507
0.0084507
0.0084507
0.0084507
0.0084507
0.0084507
0.0084507
0.0084507
0.0084507
0.0084507
0.0084507
0.0084507
0.0084507
0.0084507
0.0084507
0.0084507
0.0084507
0.0084507
0.0084507
0.0030277
0.00462899
-0.000127637
0.00315604
-0.00163372
0.00150569
-0.00190724
0.000269803
-0.00189791
-6.84108e-06
-0.00191275
7.31855e-05
-0.00241328
0.000581524
-0.00296077
0.000468744
-0.00332473
0.000300884
-0.00348836
0.000157507
-0.00351993
3.16363e-05
-0.00350297
-1.32894e-05
-0.0034876
-1.21861e-06
-0.00344486
1.70583e-05
-0.00342987
-2.61724e-06
-0.00351182
3.02952e-05
-0.00359466
5.25608e-05
-0.00363892
4.16775e-05
-0.00367555
2.3744e-05
-0.00367092
4.54787e-06
-0.00366485
-1.40977e-06
-0.0036612
-2.55987e-06
-0.00365891
8.8067e-07
-0.00365727
7.46937e-07
-0.00365274
-2.38737e-06
-0.00365151
-3.35657e-06
-0.00365519
-1.89897e-06
-0.00366085
9.98758e-07
-0.00366569
2.04968e-06
-0.00367056
1.57658e-06
-0.00368869
1.37518e-06
-0.0037029
-2.218e-06
-0.00372399
-4.21613e-06
-0.00374788
-9.66339e-06
-0.00373355
-2.46023e-05
-0.00369294
-3.95467e-05
-0.00363559
-6.52834e-05
-0.00355254
-0.000100839
-0.00340178
-0.000140579
-0.00322502
-0.000168706
-0.00304276
-0.000185393
-0.00278905
-0.000240275
-0.00251316
-0.000259079
-0.00218837
-0.0003017
-0.00185736
-0.000302513
-0.00157236
-0.000279348
-0.00126982
-0.000299126
-0.000844366
-0.000412016
-0.000456156
-0.000381534
-2.43332e-05
-0.000425259
0.000409179
-0.00043298
0.000787235
-0.000375235
0.00116431
-0.000378326
0.00152803
-0.000361551
0.00187428
-0.000344718
0.00219053
-0.000318236
0.00248533
-0.000292329
0.00276184
-0.000272551
0.00301377
-0.00024905
0.00324444
-0.000227442
0.00345743
-0.000209571
0.00365247
-0.000192903
0.00383076
-0.000177084
0.00399422
-0.000162721
0.00414375
-0.000149234
0.00428057
-0.000136265
0.00440494
-0.000124399
0.00451724
-0.00011286
0.00461848
-0.000102243
0.00471009
-9.24471e-05
0.00479462
-8.47716e-05
0.00487246
-7.77678e-05
0.00494394
-7.17518e-05
0.00500889
-6.58581e-05
0.00506819
-6.0606e-05