/*--------------------------------*- C++ -*----------------------------------*\
| =========                 |                                                 |
| \\      /  F ield         | OpenFOAM: The Open Source CFD Toolbox           |
|  \\    /   O peration     | Version:  v2106                                 |
|   \\  /    A nd           | Website:  www.openfoam.com                      |
|    \\/     M anipulation  |                                                 |
\*---------------------------------------------------------------------------*/
FoamFile
{
    version     2.0;
    format      ascii;
    arch        "LSB;label=32;scalar=64";
    class       volScalarField;
    location    "18";
    object      psi;
}
// * * * * * * * * * * * * * * * * * * * * * * * * * * * * * * * * * * * * * //

dimensions      [0 -2 2 0 0 0 0];

internalField   nonuniform List<scalar> 
5250
(
1.40845
1.40845
1.40845
1.40845
1.40845
1.40845
1.40845
1.40845
1.40844
1.40831
1.40721
1.39761
1.32398
1.04656
0.678919
0.491517
0.587972
0.607719
0.596424
0.597472
0.596403
0.594249
0.594321
0.595279
0.596716
1.40845
1.40845
1.40845
1.40845
1.40845
1.40845
1.40845
1.40845
1.40844
1.40832
1.40725
1.39794
1.3261
1.05141
0.683244
0.489672
0.59068
0.610567
0.598691
0.59956
0.598233
0.59554
0.595473
0.596266
0.597564
1.40845
1.40845
1.40845
1.40845
1.40845
1.40845
1.40845
1.40845
1.40844
1.40832
1.40733
1.39865
1.33073
1.06236
0.692947
0.483564
0.595141
0.615742
0.603183
0.60348
0.601792
0.598661
0.598136
0.598751
0.599928
1.40845
1.40845
1.40845
1.40845
1.40845
1.40845
1.40845
1.40845
1.40844
1.40834
1.40743
1.39962
1.33733
1.07881
0.70809
0.469374
0.596283
0.620894
0.609002
0.609089
0.606784
0.60289
0.601351
0.601659
0.602522
1.40845
1.40845
1.40845
1.40845
1.40845
1.40845
1.40845
1.40845
1.40844
1.40835
1.40755
1.40076
1.34567
1.10153
0.728672
0.461572
0.587603
0.617849
0.608491
0.611738
0.611453
0.609133
0.606122
0.60567
0.606144
1.40845
1.40845
1.40845
1.40845
1.40845
1.40845
1.40845
1.40845
1.40844
1.40837
1.40773
1.40226
1.35489
1.1288
0.753785
0.456774
0.574173
0.609792
0.604201
0.609521
0.611879
0.611759
0.610741
0.610348
0.610943
1.40845
1.40845
1.40845
1.40845
1.40845
1.40845
1.40845
1.40845
1.40844
1.40839
1.40791
1.40362
1.36449
1.16117
0.786747
0.448312
0.553472
0.595906
0.595774
0.60451
0.610648
0.616203
0.61663
0.616133
0.61753
1.40845
1.40845
1.40845
1.40845
1.40845
1.40845
1.40845
1.40845
1.40845
1.4084
1.40799
1.40434
1.37168
1.18845
0.822634
0.452582
0.546313
0.580785
0.584816
0.596198
0.607845
0.616027
0.62257
0.623597
0.628135
1.40845
1.40845
1.40845
1.40845
1.40845
1.40845
1.40845
1.40845
1.40845
1.40841
1.40809
1.40523
1.37933
1.22089
0.864161
0.467292
0.549932
0.567905
0.572087
0.583935
0.601604
0.615995
0.631115
0.63289
0.646176
1.40845
1.40845
1.40845
1.40845
1.40845
1.40845
1.40845
1.40845
1.40845
1.40842
1.40816
1.40587
1.38458
1.24738
0.911503
0.492325
0.565453
0.566075
0.56904
0.576626
0.591163
0.611172
0.635415
0.64477
0.689706
1.40845
1.40845
1.40845
1.40845
1.40845
1.40845
1.40845
1.40845
1.40845
1.40843
1.40824
1.40655
1.39123
1.28534
0.965929
0.520296
0.558139
0.57841
0.57789
0.578679
0.587857
0.607885
0.641706
0.682681
0.790426
1.40845
1.40845
1.40845
1.40845
1.40845
1.40845
1.40845
1.40845
1.40845
1.40844
1.40832
1.40725
1.39794
1.32348
1.02598
0.558221
0.544698
0.594155
0.592836
0.586735
0.589781
0.604012
0.635828
0.677225
0.827324
1.40845
1.40845
1.40845
1.40845
1.40845
1.40845
1.40845
1.40845
1.40845
1.40844
1.40836
1.40761
1.40127
1.34876
1.10957
0.721659
0.522072
0.623422
0.615004
0.600072
0.597044
0.60609
0.632558
0.668946
0.809682
1.40845
1.40845
1.40845
1.40845
1.40845
1.40845
1.40845
1.40845
1.40845
1.40844
1.4084
1.40796
1.40409
1.36871
1.17576
0.803998
0.489781
0.620495
0.629587
0.617724
0.607873
0.613721
0.63427
0.665777
0.773602
1.40845
1.40845
1.40845
1.40845
1.40845
1.40845
1.40845
1.40845
1.40845
1.40845
1.40841
1.4081
1.40543
1.38129
1.23213
0.888213
0.488881
0.614164
0.628685
0.632511
0.624206
0.625871
0.638806
0.663508
0.730914
1.40845
1.40845
1.40845
1.40845
1.40845
1.40845
1.40845
1.40845
1.40845
1.40845
1.40843
1.40823
1.40658
1.39201
1.2934
0.978042
0.512292
0.575018
0.63856
0.65768
0.650925
0.642155
0.647698
0.665572
0.710125
1.40845
1.40845
1.40845
1.40845
1.40845
1.40845
1.40845
1.40845
1.40845
1.40845
1.40844
1.40837
1.40766
1.40152
1.34924
1.08282
0.602659
0.532044
0.630185
0.658686
0.657552
0.654407
0.658835
0.671403
0.703129
1.40845
1.40845
1.40845
1.40845
1.40845
1.40845
1.40845
1.40845
1.40845
1.40845
1.40844
1.40839
1.40793
1.40397
1.36986
1.18085
0.806852
0.49684
0.624082
0.643404
0.664789
0.665911
0.671193
0.681441
0.704727
1.40845
1.40845
1.40845
1.40845
1.40845
1.40845
1.40845
1.40845
1.40845
1.40845
1.40845
1.40842
1.40816
1.40595
1.38706
1.26594
0.928473
0.506329
0.597582
0.640438
0.672512
0.679346
0.685966
0.694688
0.711268
1.40845
1.40845
1.40845
1.40845
1.40845
1.40845
1.40845
1.40845
1.40845
1.40845
1.40845
1.40844
1.40834
1.40738
1.39913
1.33158
1.03849
0.554516
0.559143
0.641354
0.681177
0.685604
0.691606
0.701339
0.717667
1.40845
1.40845
1.40845
1.40845
1.40845
1.40845
1.40845
1.40845
1.40845
1.40845
1.40845
1.40844
1.40838
1.40788
1.40368
1.37032
1.19391
0.786512
0.509885
0.636041
0.661145
0.689174
0.696865
0.706403
0.721633
1.40845
1.40845
1.40845
1.40845
1.40845
1.40845
1.40845
1.40845
1.40845
1.40845
1.40845
1.40844
1.40836
1.40838
1.40653
1.39235
1.29042
0.928526
0.537574
0.597466
0.666287
0.694981
0.703186
0.713262
0.727056
1.40845
1.40845
1.40845
1.40845
1.40845
1.40845
1.40845
1.40845
1.40845
1.40845
1.40845
1.40845
1.40844
1.40834
1.40756
1.40121
1.35374
1.13476
0.656686
0.542606
0.662424
0.679994
0.700734
0.715378
0.731503
1.40845
1.40845
1.40845
1.40845
1.40845
1.40845
1.40845
1.40845
1.40845
1.40845
1.40845
1.40845
1.40844
1.40837
1.40813
1.4057
1.39777
1.29538
0.850755
0.523911
0.624275
0.675055
0.704768
0.718566
0.734145
1.40845
1.40845
1.40845
1.40845
1.40845
1.40845
1.40845
1.40845
1.40845
1.40845
1.40845
1.40845
1.40845
1.40843
1.4083
1.40722
1.39885
1.33714
1.07986
0.566799
0.573007
0.67045
0.698369
0.718756
0.735309
1.40845
1.40845
1.40845
1.40845
1.40845
1.40845
1.40845
1.40845
1.40845
1.40845
1.40845
1.40845
1.40845
1.40844
1.40831
1.4083
1.40603
1.38998
1.2663
0.78877
0.521663
0.635583
0.685032
0.72003
0.735454
1.40845
1.40845
1.40845
1.40845
1.40845
1.40845
1.40845
1.40845
1.40845
1.40845
1.40845
1.40845
1.40845
1.40845
1.40843
1.40828
1.40705
1.39768
1.3298
1.06025
0.56476
0.583734
0.681946
0.711388
0.732547
1.40845
1.40845
1.40845
1.40845
1.40845
1.40845
1.40845
1.40845
1.40845
1.40845
1.40845
1.40845
1.40845
1.40845
1.40844
1.40832
1.40838
1.40595
1.38969
1.27193
0.788303
0.5278
0.641227
0.696293
0.731096
1.40845
1.40845
1.40845
1.40845
1.40845
1.40845
1.40845
1.40845
1.40845
1.40845
1.40845
1.40845
1.40845
1.40845
1.40845
1.40843
1.40828
1.40708
1.39823
1.33317
1.06093
0.57352
0.587924
0.690174
0.713481
1.40845
1.40845
1.40845
1.40845
1.40845
1.40845
1.40845
1.40845
1.40845
1.40845
1.40845
1.40845
1.40845
1.40845
1.40845
1.40844
1.40838
1.40853
1.40645
1.39023
1.27601
0.82055
0.539679
0.640992
0.704392
1.40845
1.40845
1.40845
1.40845
1.40845
1.40845
1.40845
1.40845
1.40845
1.40845
1.40845
1.40845
1.40845
1.40845
1.40845
1.40845
1.40844
1.40832
1.40735
1.39991
1.34381
1.08804
0.603336
0.584574
0.687779
1.40845
1.40845
1.40845
1.40845
1.40845
1.40845
1.40845
1.40845
1.40845
1.40845
1.40845
1.40845
1.40845
1.40845
1.40845
1.40845
1.40845
1.40844
1.40861
1.40714
1.3927
1.28557
0.881929
0.556235
0.622393
1.40845
1.40845
1.40845
1.40845
1.40845
1.40845
1.40845
1.40845
1.40845
1.40845
1.40845
1.40845
1.40845
1.40845
1.40845
1.40845
1.40845
1.40844
1.40833
1.40744
1.40053
1.35017
1.10888
0.635141
0.570056
1.40845
1.40845
1.40845
1.40845
1.40845
1.40845
1.40845
1.40845
1.40845
1.40845
1.40845
1.40845
1.40845
1.40845
1.40845
1.40845
1.40845
1.40845
1.40843
1.40829
1.40686
1.39649
1.31484
1.01854
0.613571
1.40845
1.40845
1.40845
1.40845
1.40845
1.40845
1.40845
1.40845
1.40845
1.40845
1.40845
1.40845
1.40845
1.40845
1.40845
1.40845
1.40845
1.40845
1.40844
1.40839
1.40806
1.40369
1.40434
1.3106
0.816434
1.40845
1.40845
1.40845
1.40845
1.40845
1.40845
1.40845
1.40845
1.40845
1.40845
1.40845
1.40845
1.40845
1.40845
1.40845
1.40845
1.40845
1.40845
1.40845
1.40842
1.40847
1.40776
1.40048
1.34939
1.09801
1.40845
1.40845
1.40845
1.40845
1.40845
1.40845
1.40845
1.40845
1.40845
1.40845
1.40845
1.40845
1.40845
1.40845
1.40845
1.40845
1.40845
1.40845
1.40845
1.40845
1.40841
1.40822
1.40668
1.3978
1.3134
1.40845
1.40845
1.40845
1.40845
1.40845
1.40845
1.40845
1.40845
1.40845
1.40845
1.40845
1.40845
1.40845
1.40845
1.40845
1.40845
1.40845
1.40845
1.40845
1.40845
1.40844
1.40837
1.40784
1.40428
1.38039
1.40845
1.40845
1.40845
1.40845
1.40845
1.40845
1.40845
1.40845
1.40845
1.40845
1.40845
1.40845
1.40845
1.40845
1.40845
1.40845
1.40845
1.40845
1.40845
1.40845
1.40845
1.40843
1.40831
1.40742
1.40077
1.40845
1.40845
1.40845
1.40845
1.40845
1.40845
1.40845
1.40845
1.40845
1.40845
1.40845
1.40845
1.40845
1.40845
1.40845
1.40845
1.40845
1.40845
1.40845
1.40845
1.40845
1.40845
1.40842
1.40821
1.40669
1.40845
1.40845
1.40845
1.40845
1.40845
1.40845
1.40845
1.40845
1.40845
1.40845
1.40845
1.40845
1.40845
1.40845
1.40845
1.40845
1.40845
1.40845
1.40845
1.40845
1.40845
1.40845
1.40844
1.40839
1.40799
1.40845
1.40845
1.40845
1.40845
1.40845
1.40845
1.40845
1.40845
1.40845
1.40845
1.40845
1.40845
1.40845
1.40845
1.40845
1.40845
1.40845
1.40845
1.40845
1.40845
1.40845
1.40845
1.40845
1.40844
1.4085
1.40845
1.40845
1.40845
1.40845
1.40845
1.40845
1.40845
1.40845
1.40845
1.40845
1.40845
1.40845
1.40845
1.40845
1.40845
1.40845
1.40845
1.40845
1.40845
1.40845
1.40845
1.40845
1.40845
1.40845
1.40842
1.40845
1.40845
1.40845
1.40845
1.40845
1.40845
1.40845
1.40845
1.40845
1.40845
1.40845
1.40845
1.40845
1.40845
1.40845
1.40845
1.40845
1.40845
1.40845
1.40845
1.40845
1.40845
1.40845
1.40845
1.40845
1.40845
1.40845
1.40845
1.40845
1.40845
1.40845
1.40845
1.40845
1.40845
1.40845
1.40845
1.40845
1.40845
1.40845
1.40845
1.40845
1.40845
1.40845
1.40845
1.40845
1.40845
1.40845
1.40845
1.40845
1.40845
1.40845
1.40845
1.40845
1.40845
1.40845
1.40845
1.40845
1.40845
1.40845
1.40845
1.40845
1.40845
1.40845
1.40845
1.40845
1.40845
1.40845
1.40845
1.40845
1.40845
1.40845
1.40845
1.40845
1.40845
1.40845
1.40845
1.40845
1.40845
1.40845
1.40845
1.40845
1.40845
1.40845
1.40845
1.40845
1.40845
1.40845
1.40845
1.40845
1.40845
1.40845
1.40845
1.40845
1.40845
1.40845
1.40845
1.40845
1.40845
1.40845
1.40845
1.40845
1.40845
1.40845
1.40845
1.40845
1.40845
1.40845
1.40845
1.40845
1.40845
1.40845
1.40845
1.40845
1.40845
1.40845
1.40845
1.40845
1.40845
1.40845
1.40845
1.40845
1.40845
1.40845
1.40845
1.40845
1.40845
1.40845
1.40845
1.40845
1.40845
1.40845
1.40845
1.40845
1.40845
1.40845
1.40845
1.40845
1.40845
1.40845
1.40845
1.40845
1.40845
1.40845
1.40845
1.40845
1.40845
1.40845
1.40845
1.40845
1.40845
1.40845
1.40845
1.40845
1.40845
1.40845
1.40845
1.40845
1.40845
1.40845
1.40845
1.40845
1.40845
1.40845
1.40845
1.40845
1.40845
1.40845
1.40845
1.40845
1.40845
1.40845
1.40845
1.40845
1.40845
1.40845
0.711102
0.630301
0.504399
0.513193
0.518092
0.508328
0.50049
0.49928
0.53955
0.555862
0.558383
0.556867
0.555706
0.55345
0.549054
0.563711
0.57906
0.58719
0.589267
0.590528
0.58767
0.586801
0.586719
0.586548
0.586679
0.587281
0.589109
0.590721
0.591838
0.592455
0.592905
0.594536
0.594735
0.594617
0.592315
0.58244
0.574007
0.56639
0.559126
0.547802
0.540097
0.533825
0.525607
0.518639
0.512016
0.506472
0.505314
0.505159
0.502084
0.501898
0.494642
0.49778
0.499697
0.502214
0.504924
0.507173
0.509685
0.512423
0.515224
0.517849
0.520534
0.523196
0.525767
0.528397
0.530928
0.533506
0.536017
0.538461
0.540866
0.543205
0.545577
0.547944
0.550344
0.55257
0.554807
0.55691
0.559041
0.561125
0.563234
0.565294
0.567368
0.569356
0.571356
0.573238
0.575149
0.57696
0.578811
0.580537
0.582296
0.5839
0.585533
0.586991
0.588491
0.589851
0.591275
0.592763
0.5943
0.596852
0.59683
0.595344
0.695474
0.643085
0.59077
0.537296
0.519638
0.497768
0.478839
0.453705
0.487432
0.500491
0.502186
0.492541
0.489843
0.485488
0.483171
0.495555
0.50311
0.507571
0.50721
0.507033
0.506287
0.505638
0.505608
0.505302
0.505478
0.504995
0.505823
0.506614
0.508178
0.508772
0.508981
0.510375
0.509732
0.509127
0.509199
0.503276
0.499132
0.495471
0.490014
0.485665
0.48284
0.481883
0.482589
0.481507
0.478202
0.483329
0.487808
0.488786
0.493103
0.497173
0.502754
0.510509
0.516908
0.523272
0.530208
0.535769
0.541492
0.547221
0.553512
0.558433
0.562826
0.567456
0.571739
0.575528
0.578996
0.582461
0.58605
0.589623
0.59288
0.595853
0.598802
0.601792
0.60485
0.607785
0.610763
0.61349
0.616191
0.618732
0.62128
0.623774
0.626285
0.628726
0.631209
0.633459
0.635682
0.637742
0.639806
0.641813
0.643839
0.64586
0.647932
0.649914
0.651946
0.653843
0.655766
0.657597
0.659468
0.662463
0.662453
0.660454
0.767178
0.709337
0.658141
0.590526
0.559103
0.534872
0.522156
0.495219
0.470519
0.467524
0.462295
0.464728
0.470073
0.467588
0.458322
0.449645
0.464405
0.471998
0.472929
0.474237
0.469715
0.467779
0.467257
0.46727
0.46736
0.468312
0.469047
0.469885
0.470287
0.470064
0.469954
0.471282
0.471334
0.471085
0.471365
0.467369
0.464788
0.463468
0.456414
0.454162
0.457448
0.462152
0.469379
0.478975
0.491662
0.511071
0.524086
0.535222
0.545871
0.555962
0.565711
0.574586
0.58321
0.58971
0.597003
0.6021
0.607247
0.612139
0.617837
0.623457
0.627796
0.631728
0.635586
0.639413
0.643016
0.646251
0.649311
0.65243
0.655549
0.65834
0.661094
0.663833
0.666568
0.669289
0.672065
0.674748
0.677479
0.680045
0.682599
0.685048
0.687502
0.689838
0.692181
0.694398
0.69664
0.698809
0.701008
0.70309
0.705188
0.707155
0.709157
0.710971
0.712762
0.714604
0.71652
0.718517
0.720704
0.723842
0.725244
0.723427
0.821319
0.79253
0.754783
0.693272
0.632595
0.587901
0.579646
0.563749
0.53427
0.504873
0.489975
0.477563
0.475813
0.478554
0.479559
0.46705
0.463184
0.461115
0.45887
0.45891
0.459567
0.462051
0.470023
0.469758
0.468356
0.468085
0.467718
0.466373
0.467358
0.467762
0.468025
0.469326
0.466506
0.462265
0.457811
0.451033
0.45051
0.452148
0.46132
0.477401
0.504745
0.527352
0.542472
0.55712
0.571366
0.586294
0.597831
0.610416
0.616128
0.626112
0.630641
0.636032
0.640671
0.645422
0.651467
0.654929
0.658603
0.662053
0.666034
0.671228
0.67465
0.677892
0.681373
0.684642
0.687926
0.690967
0.693929
0.696939
0.700016
0.702597
0.705026
0.707485
0.709986
0.712515
0.715074
0.717694
0.72041
0.723125
0.725727
0.728175
0.730474
0.732696
0.734934
0.737155
0.739323
0.741438
0.74351
0.745532
0.747547
0.749611
0.751728
0.753807
0.755655
0.757528
0.759409
0.761318
0.763397
0.766211
0.767955
0.765746
0.808284
0.82018
0.80587
0.770108
0.728303
0.680314
0.654812
0.660236
0.630947
0.592764
0.560555
0.532957
0.511669
0.506267
0.50581
0.503352
0.495691
0.486556
0.479307
0.472155
0.468303
0.467812
0.468303
0.469061
0.470026
0.470082
0.470255
0.468884
0.46833
0.468747
0.47051
0.469221
0.466421
0.461557
0.461611
0.469089
0.483686
0.506833
0.535717
0.560847
0.591776
0.604059
0.615379
0.628851
0.640842
0.650887
0.663752
0.671201
0.670722
0.67494
0.675768
0.678421
0.682314
0.686669
0.68982
0.691759
0.693994
0.696781
0.699628
0.703492
0.706833
0.709241
0.712109
0.71536
0.718808
0.72196
0.724853
0.727809
0.730562
0.733078
0.735505
0.737934
0.740332
0.742712
0.745128
0.74762
0.750225
0.75294
0.755636
0.758169
0.760649
0.763091
0.76544
0.76763
0.769726
0.771775
0.773788
0.775752
0.777726
0.779765
0.781842
0.783959
0.785817
0.787698
0.789608
0.791549
0.793656
0.796383
0.79848
0.795951
0.77853
0.817073
0.81992
0.803488
0.782349
0.75632
0.728995
0.740235
0.71195
0.6709
0.638638
0.61198
0.584471
0.566976
0.562224
0.555185
0.543561
0.530182
0.519692
0.506733
0.500119
0.493065
0.487806
0.483409
0.481082
0.478693
0.477378
0.47668
0.475766
0.47505
0.474076
0.471283
0.473443
0.479416
0.492769
0.516609
0.550255
0.591471
0.625183
0.648077
0.673186
0.680501
0.683273
0.689077
0.695181
0.702049
0.707942
0.708256
0.712604
0.712733
0.707748
0.707717
0.710594
0.71475
0.71624
0.718505
0.721141
0.722924
0.72401
0.725664
0.729086
0.732388
0.735786
0.738863
0.741694
0.744182
0.746432
0.748812
0.751477
0.754306
0.756812
0.759128
0.761423
0.763773
0.766213
0.768801
0.771541
0.77435
0.777076
0.779623
0.78194
0.784176
0.786412
0.788682
0.791009
0.793424
0.795899
0.798125
0.800083
0.802037
0.803977
0.805929
0.807676
0.809473
0.811371
0.813368
0.81558
0.818324
0.820983
0.81835
0.747408
0.797683
0.818503
0.819519
0.812163
0.8042
0.791523
0.805029
0.803087
0.778547
0.742959
0.714296
0.688516
0.664172
0.648122
0.636747
0.620562
0.603552
0.586152
0.570921
0.555458
0.543575
0.532802
0.522279
0.515472
0.508118
0.502648
0.496563
0.492666
0.489699
0.485304
0.487495
0.494293
0.510694
0.543458
0.598679
0.648993
0.691325
0.725234
0.742451
0.759989
0.760018
0.755662
0.752934
0.7455
0.732133
0.718561
0.727607
0.737004
0.735899
0.73697
0.736964
0.734167
0.733855
0.735909
0.737474
0.738867
0.741345
0.741722
0.742785
0.745301
0.748571
0.752159
0.754281
0.755886
0.757874
0.760155
0.762732
0.765707
0.768192
0.770231
0.772318
0.774561
0.777027
0.779673
0.78244
0.785229
0.787971
0.790632
0.793103
0.795525
0.797967
0.800445
0.802991
0.805603
0.808074
0.810354
0.812432
0.814401
0.816411
0.818455
0.820555
0.822477
0.824419
0.826458
0.828578
0.830892
0.833719
0.836622
0.833872
0.734995
0.770797
0.803684
0.816831
0.815612
0.818424
0.822286
0.832758
0.847146
0.841865
0.819011
0.790842
0.767076
0.745837
0.72536
0.724007
0.719787
0.705976
0.684815
0.665549
0.643994
0.622214
0.607953
0.593873
0.580437
0.564955
0.553673
0.540262
0.533405
0.525757
0.503259
0.516894
0.540291
0.578138
0.633614
0.702288
0.742482
0.772282
0.799444
0.814052
0.830145
0.829489
0.828621
0.825926
0.815987
0.798616
0.779461
0.757102
0.731485
0.741217
0.758387
0.757223
0.755956
0.752733
0.74778
0.746487
0.749192
0.751879
0.75455
0.756283
0.756822
0.757784
0.758986
0.761321
0.764131
0.767161
0.770195
0.772353
0.77434
0.776327
0.778394
0.780541
0.782822
0.785303
0.787987
0.790784
0.793632
0.796238
0.798834
0.801475
0.804163
0.806867
0.809455
0.811983
0.814471
0.816916
0.819318
0.821632
0.823794
0.825968
0.828147
0.830344
0.832389
0.834452
0.836611
0.838865
0.841325
0.844316
0.847494
0.844739
0.735006
0.757117
0.782994
0.799986
0.812573
0.818136
0.825239
0.838268
0.855961
0.873723
0.869884
0.854889
0.835997
0.822207
0.810925
0.797922
0.801158
0.792369
0.774918
0.752682
0.73506
0.715255
0.700529
0.685146
0.670404
0.654302
0.637108
0.618332
0.601185
0.565468
0.551345
0.5728
0.608321
0.658797
0.72881
0.781176
0.811304
0.825802
0.843855
0.857027
0.870478
0.879417
0.883993
0.884081
0.876208
0.864213
0.848323
0.824528
0.796703
0.761489
0.737399
0.748156
0.761689
0.766522
0.765659
0.760672
0.757053
0.759472
0.760826
0.762891
0.762807
0.763088
0.764153
0.7664
0.770381
0.774075
0.775842
0.777658
0.779636
0.781831
0.784301
0.786965
0.789469
0.791902
0.794425
0.797143
0.800148
0.803017
0.805595
0.808191
0.810829
0.813504
0.81613
0.818731
0.821341
0.823971
0.826511
0.82884
0.831018
0.833204
0.835414
0.837652
0.839908
0.842193
0.844534
0.846929
0.849467
0.852493
0.855701
0.852817
0.738439
0.756083
0.777005
0.78752
0.804494
0.812003
0.822642
0.837491
0.85565
0.873366
0.888514
0.884445
0.876857
0.868392
0.862029
0.854555
0.855174
0.856439
0.852716
0.839117
0.819684
0.803986
0.788346
0.775395
0.761843
0.747924
0.731698
0.706816
0.672483
0.598451
0.612735
0.641526
0.678362
0.730277
0.791587
0.820014
0.841441
0.860209
0.875006
0.886948
0.89817
0.906007
0.912811
0.917376
0.915144
0.912192
0.902912
0.887275
0.864634
0.830428
0.792262
0.74009
0.745669
0.768453
0.769132
0.770177
0.771137
0.766128
0.766313
0.767822
0.769037
0.77027
0.77233
0.774372
0.776704
0.779793
0.781852
0.783439
0.785471
0.788064
0.790395
0.792615
0.794932
0.797557
0.800576
0.803796
0.806709
0.809198
0.811471
0.813759
0.816116
0.818565
0.821075
0.823623
0.826167
0.828716
0.831197
0.833632
0.836069
0.838554
0.84104
0.843523
0.845892
0.848134
0.850381
0.852653
0.855068
0.857987
0.861092
0.858039
0.742496
0.757194
0.773086
0.783971
0.79547
0.803965
0.816372
0.831366
0.849412
0.869786
0.885952
0.894934
0.892126
0.886496
0.884122
0.880284
0.880928
0.884189
0.890924
0.888777
0.877774
0.862386
0.851788
0.841453
0.830672
0.818517
0.797328
0.766063
0.705726
0.626056
0.660749
0.689085
0.72654
0.779644
0.813351
0.835624
0.856312
0.878855
0.891097
0.90455
0.915856
0.925143
0.928777
0.930899
0.935261
0.93802
0.934292
0.927805
0.914867
0.893272
0.865548
0.8292
0.785457
0.739341
0.753497
0.768712
0.783655
0.78017
0.779576
0.774512
0.776473
0.777614
0.779577
0.782713
0.783967
0.784826
0.7863
0.788593
0.79118
0.79425
0.796297
0.798472
0.800835
0.803489
0.806335
0.809442
0.811703
0.813778
0.815912
0.81812
0.820366
0.822612
0.824863
0.827148
0.829471
0.831854
0.834289
0.83675
0.839188
0.84165
0.844131
0.8466
0.849067
0.851462
0.853834
0.856215
0.85873
0.861738
0.864965
0.861816
0.746232
0.760371
0.775002
0.785681
0.791852
0.800573
0.809699
0.822208
0.839476
0.859642
0.876982
0.896264
0.898182
0.8966
0.893034
0.89387
0.896499
0.902621
0.910527
0.915658
0.91232
0.905199
0.8979
0.888748
0.878559
0.862435
0.836686
0.784636
0.695068
0.666049
0.695347
0.717787
0.751235
0.790568
0.811014
0.832432
0.853903
0.874241
0.890933
0.90639
0.917746
0.92887
0.938156
0.947163
0.94687
0.948065
0.945708
0.944774
0.942423
0.937093
0.926431
0.90245
0.866943
0.822497
0.755582
0.753188
0.775266
0.77938
0.787561
0.786575
0.785248
0.785383
0.785774
0.787012
0.788956
0.790928
0.792818
0.794962
0.79732
0.800121
0.80317
0.804992
0.806966
0.809107
0.811448
0.813999
0.816706
0.819052
0.821342
0.823623
0.82591
0.828188
0.830461
0.832781
0.835171
0.837654
0.8402
0.842604
0.844849
0.84708
0.849323
0.85158
0.853855
0.856167
0.858538
0.860983
0.863627
0.866813
0.870313
0.867081
0.75002
0.763679
0.777484
0.788637
0.793205
0.799503
0.806463
0.816945
0.831173
0.847339
0.86486
0.885974
0.898886
0.898741
0.896996
0.899378
0.90322
0.908662
0.918752
0.922531
0.925904
0.928683
0.926493
0.918611
0.906171
0.882771
0.836129
0.759999
0.658446
0.696597
0.715035
0.738503
0.767588
0.785208
0.804244
0.822489
0.841214
0.85732
0.872013
0.886465
0.898695
0.910239
0.921952
0.932237
0.942567
0.954435
0.952698
0.953419
0.955971
0.958362
0.95793
0.948487
0.932138
0.903695
0.86213
0.814098
0.750204
0.761859
0.779599
0.801084
0.801011
0.799385
0.796075
0.796215
0.796629
0.798484
0.801118
0.803882
0.806184
0.808341
0.810668
0.813032
0.815474
0.818021
0.820292
0.822591
0.824946
0.827433
0.829423
0.831368
0.833438
0.835706
0.838207
0.840943
0.843852
0.846795
0.849411
0.851751
0.853805
0.855712
0.857566
0.859434
0.861354
0.863378
0.865565
0.867974
0.870729
0.874137
0.87804
0.874718
0.751415
0.765049
0.778753
0.792978
0.797242
0.801261
0.807242
0.816059
0.826538
0.839495
0.854797
0.870058
0.890194
0.896584
0.896871
0.898307
0.902891
0.910504
0.915883
0.921
0.928646
0.943229
0.936355
0.928252
0.910889
0.870353
0.798735
0.678043
0.68723
0.715825
0.735641
0.752184
0.766597
0.780824
0.796923
0.814113
0.829017
0.843367
0.858055
0.871167
0.883005
0.895484
0.907184
0.919419
0.93222
0.939268
0.948842
0.960767
0.968085
0.968084
0.968014
0.96902
0.968758
0.960122
0.937787
0.90298
0.853815
0.792405
0.760134
0.781566
0.79055
0.808397
0.805763
0.803975
0.801779
0.801811
0.802848
0.805205
0.810012
0.811734
0.813745
0.816142
0.81918
0.822652
0.82601
0.827742
0.82951
0.831441
0.833445
0.835414
0.837416
0.839524
0.841824
0.844306
0.846774
0.849239
0.851824
0.854227
0.856324
0.858467
0.860652
0.862887
0.865177
0.867536
0.869994
0.872602
0.875496
0.879007
0.883065
0.879563
0.753195
0.766201
0.778641
0.79388
0.800528
0.804181
0.810066
0.817073
0.825965
0.83667
0.848074
0.859456
0.87619
0.888383
0.891627
0.895306
0.903415
0.907877
0.912623
0.919292
0.934927
0.937664
0.930327
0.920015
0.890936
0.827486
0.713995
0.695029
0.726374
0.73198
0.741127
0.751781
0.763641
0.776438
0.790317
0.804778
0.81826
0.832354
0.845438
0.857801
0.869659
0.881926
0.893875
0.905892
0.916367
0.92782
0.940122
0.952409
0.959203
0.969366
0.976818
0.983034
0.984397
0.982661
0.977491
0.964171
0.933581
0.88984
0.836913
0.76293
0.769529
0.791928
0.801577
0.814699
0.811895
0.811912
0.811149
0.811465
0.812475
0.816939
0.819475
0.82097
0.822897
0.825134
0.827648
0.830213
0.832686
0.834778
0.836819
0.838865
0.84094
0.843159
0.845539
0.847892
0.850084
0.852291
0.85459
0.857017
0.859483
0.861798
0.864156
0.866548
0.86895
0.871379
0.873878
0.87651
0.879416
0.882962
0.887198
0.883553
0.752759
0.766077
0.777947
0.79316
0.802708
0.805375
0.811142
0.81874
0.82722
0.836066
0.845836
0.856791
0.869229
0.885456
0.888829
0.891747
0.89833
0.904904
0.911502
0.919038
0.928419
0.924906
0.919046
0.897981
0.844479
0.765671
0.69835
0.723054
0.736609
0.741642
0.747401
0.753997
0.762074
0.771843
0.783153
0.795666
0.808724
0.822035
0.83439
0.846854
0.858631
0.871194
0.883269
0.893944
0.905319
0.920098
0.930668
0.938248
0.949258
0.961329
0.971618
0.981117
0.98887
0.990633
0.988794
0.989513
0.981199
0.95913
0.921784
0.872686
0.819
0.76571
0.780553
0.79621
0.824156
0.82316
0.820113
0.817554
0.817795
0.818422
0.821007
0.82576
0.827831
0.829719
0.831372
0.833075
0.834961
0.83734
0.839426
0.841603
0.843789
0.84601
0.848243
0.850531
0.852897
0.855359
0.858058
0.86053
0.862738
0.864994
0.867322
0.86973
0.872225
0.874796
0.877464
0.880285
0.883379
0.887093
0.891575
0.887713
0.751012
0.765111
0.777227
0.791704
0.804485
0.806356
0.810637
0.819201
0.827589
0.835903
0.844885
0.854997
0.865748
0.879939
0.89027
0.892166
0.894844
0.902703
0.914872
0.917827
0.913847
0.910543
0.897455
0.853644
0.778545
0.693878
0.715932
0.737807
0.742401
0.746737
0.75014
0.754312
0.760468
0.768832
0.778965
0.789797
0.801339
0.813391
0.825229
0.83705
0.849255
0.862597
0.873225
0.884633
0.897807
0.911532
0.918899
0.929563
0.942325
0.950724
0.958069
0.967475
0.978145
0.990565
0.995878
1.00139
0.997392
0.992258
0.977632
0.948659
0.907407
0.857581
0.785368
0.782524
0.807381
0.811287
0.831414
0.830112
0.825641
0.823202
0.824103
0.825977
0.829378
0.833852
0.835113
0.836498
0.838341
0.840696
0.843998
0.845613
0.846977
0.848544
0.850346
0.852449
0.854929
0.857667
0.860888
0.863871
0.866078
0.868386
0.870787
0.87325
0.875783
0.878416
0.881167
0.884047
0.887138
0.890829
0.89543
0.891368
0.74624
0.761945
0.775084
0.788634
0.804894
0.80745
0.809906
0.818021
0.827582
0.834969
0.843571
0.85362
0.865073
0.879479
0.890975
0.892709
0.89622
0.904274
0.912951
0.909911
0.904481
0.89157
0.855122
0.787091
0.691244
0.713134
0.736436
0.746776
0.749029
0.750536
0.752552
0.755991
0.761427
0.768676
0.777412
0.787067
0.797435
0.808843
0.819659
0.830769
0.84305
0.854595
0.865015
0.877656
0.892447
0.900061
0.910255
0.92194
0.931798
0.939891
0.94836
0.958076
0.969257
0.979771
0.990655
1.00302
1.00806
1.00227
0.997587
0.988039
0.972785
0.942856
0.898635
0.846241
0.777797
0.791825
0.809768
0.829352
0.83973
0.835489
0.833701
0.831143
0.832004
0.834468
0.83925
0.842383
0.843211
0.844503
0.846356
0.84818
0.849653
0.851062
0.852661
0.854682
0.857351
0.860445
0.86377
0.867585
0.870195
0.87253
0.874898
0.877288
0.879748
0.882335
0.88508
0.887996
0.891131
0.894852
0.899586
0.895339
0.739778
0.756475
0.774026
0.787039
0.803178
0.809233
0.809242
0.815575
0.82626
0.835226
0.841424
0.850362
0.862163
0.877603
0.893788
0.894507
0.899132
0.906334
0.905858
0.900921
0.889817
0.856578
0.794087
0.69501
0.709393
0.730004
0.747027
0.750424
0.751417
0.753167
0.7556
0.759044
0.763675
0.769582
0.776786
0.785629
0.795438
0.806108
0.816873
0.828165
0.839739
0.849369
0.860563
0.872975
0.883455
0.893638
0.905675
0.913669
0.923311
0.93351
0.94318
0.952476
0.962227
0.973048
0.986452
0.99312
1.00225
1.00437
1.00527
1.00487
1.00548
0.995193
0.971619
0.933082
0.882748
0.832244
0.795191
0.816657
0.824116
0.84289
0.841569
0.836402
0.83604
0.836462
0.838923
0.842212
0.84638
0.848976
0.849489
0.850182
0.851206
0.852546
0.854199
0.856608
0.859813
0.863513
0.867323
0.871461
0.874695
0.876959
0.879249
0.881585
0.883992
0.886545
0.889267
0.892179
0.895308
0.899065
0.904045
0.899704
0.735895
0.750195
0.767609
0.783883
0.79993
0.812977
0.811734
0.81425
0.823821
0.835965
0.84187
0.848418
0.8587
0.872821
0.891096
0.897146
0.906965
0.902535
0.897034
0.889537
0.860565
0.802474
0.702118
0.704162
0.722787
0.740256
0.748506
0.751256
0.753948
0.75678
0.759918
0.76361
0.768028
0.773479
0.779894
0.787348
0.79565
0.804682
0.814653
0.825651
0.835774
0.846731
0.859575
0.867923
0.877565
0.889075
0.898448
0.90762
0.91749
0.928259
0.937523
0.947505
0.957434
0.967401
0.977719
0.987042
0.99407
1.00249
1.01197
1.01752
1.01515
1.00952
1.00446
0.992688
0.969828
0.927896
0.874971
0.802251
0.80403
0.823504
0.829337
0.845614
0.844105
0.839533
0.839641
0.841212
0.844025
0.848232
0.853323
0.853988
0.854754
0.856038
0.85773
0.860208
0.863203
0.86654
0.870305
0.874828
0.878149
0.880514
0.882971
0.885479
0.888049
0.890722
0.893504
0.896459
0.899637
0.90341
0.908632
0.904137
0.713924
0.746711
0.762327
0.779673
0.794577
0.812122
0.815359
0.815486
0.82264
0.834517
0.842882
0.848062
0.855635
0.867364
0.883646
0.897398
0.900921
0.89574
0.886657
0.861054
0.809115
0.717161
0.704532
0.726599
0.736088
0.745457
0.75134
0.756838
0.760072
0.762995
0.766139
0.769522
0.773242
0.777593
0.782729
0.788877
0.795908
0.803853
0.812387
0.821675
0.831311
0.841916
0.852657
0.862243
0.872799
0.882902
0.892827
0.901894
0.911446
0.920564
0.930367
0.938761
0.947606
0.95681
0.966245
0.975443
0.982327
0.988936
0.995836
1.00262
1.01131
1.01294
1.01605
1.01975
1.0163
0.997083
0.963987
0.911548
0.859708
0.797646
0.813363
0.828321
0.846403
0.85577
0.853841
0.848868
0.848827
0.850165
0.853115
0.857515
0.859471
0.860607
0.862211
0.864094
0.866469
0.869726
0.873791
0.87894
0.882211
0.884514
0.886938
0.889532
0.892279
0.895213
0.898225
0.901383
0.904705
0.908538
0.913681
0.908872
0.708307
0.735932
0.758669
0.773292
0.788936
0.807266
0.818455
0.817598
0.82259
0.833115
0.843967
0.848178
0.8541
0.863914
0.878771
0.892071
0.885972
0.879324
0.861263
0.811732
0.728865
0.70397
0.729802
0.73466
0.740537
0.746935