/*--------------------------------*- C++ -*----------------------------------*\
| =========                 |                                                 |
| \\      /  F ield         | OpenFOAM: The Open Source CFD Toolbox           |
|  \\    /   O peration     | Version:  v2106                                 |
|   \\  /    A nd           | Website:  www.openfoam.com                      |
|    \\/     M anipulation  |                                                 |
\*---------------------------------------------------------------------------*/
FoamFile
{
    version     2.0;
    format      ascii;
    arch        "LSB;label=32;scalar=64";
    class       volScalarField;
    location    "18";
    object      rho;
}
// * * * * * * * * * * * * * * * * * * * * * * * * * * * * * * * * * * * * * //

dimensions      [1 -3 0 0 0 0 0];

internalField   nonuniform List<scalar> 
5250
(
1.40845
1.40845
1.40845
1.40845
1.40845
1.40845
1.40845
1.40845
1.40845
1.40842
1.40818
1.40613
1.39497
1.49357
2.10262
4.40825
7.6551
6.62192
6.8429
6.98314
7.02701
7.09556
7.1604
7.22157
7.26719
1.40845
1.40845
1.40845
1.40845
1.40845
1.40845
1.40845
1.40845
1.40845
1.40842
1.40819
1.40623
1.39489
1.48987
2.08971
4.33135
7.71443
6.63763
6.86409
7.00342
7.04083
7.10302
7.16657
7.22524
7.26917
1.40845
1.40845
1.40845
1.40845
1.40845
1.40845
1.40845
1.40845
1.40845
1.40842
1.4082
1.40644
1.39479
1.48181
2.05975
4.13646
7.81362
6.64926
6.89061
7.01982
7.05455
7.10541
7.16218
7.21502
7.2539
1.40845
1.40845
1.40845
1.40845
1.40845
1.40845
1.40845
1.40845
1.40845
1.40843
1.40821
1.40675
1.39481
1.47066
2.01627
3.81503
7.89319
6.66056
6.92375
7.05054
7.0764
7.11449
7.15094
7.19657
7.2296
1.40845
1.40845
1.40845
1.40845
1.40845
1.40845
1.40845
1.40845
1.40845
1.40843
1.40822
1.40716
1.39512
1.45726
1.95428
3.51088
7.78411
6.58109
6.85898
7.02494
7.06603
7.11159
7.13227
7.16451
7.19199
1.40845
1.40845
1.40845
1.40845
1.40845
1.40845
1.40845
1.40845
1.40845
1.40843
1.40828
1.4073
1.39546
1.44304
1.88043
3.20653
7.56613
6.47082
6.75346
6.94067
7.01247
7.07267
7.10328
7.11502
7.13664
1.40845
1.40845
1.40845
1.40845
1.40845
1.40845
1.40845
1.40845
1.40845
1.40844
1.4083
1.40751
1.39643
1.42956
1.79872
2.8514
7.16571
6.32906
6.57691
6.80675
6.90561
6.99899
7.04561
7.04819
7.06126
1.40845
1.40845
1.40845
1.40845
1.40845
1.40845
1.40845
1.40845
1.40845
1.40845
1.40828
1.40787
1.39791
1.41961
1.74856
2.59165
6.74983
6.16329
6.36427
6.59946
6.78563
6.8807
6.94531
6.96571
6.94777
1.40845
1.40845
1.40845
1.40845
1.40845
1.40845
1.40845
1.40845
1.40845
1.40845
1.4083
1.40807
1.3996
1.41017
1.67923
2.36834
6.3541
6.0227
6.12374
6.3476
6.57255
6.69912
6.80313
6.77955
6.77649
1.40845
1.40845
1.40845
1.40845
1.40845
1.40845
1.40845
1.40845
1.40845
1.40846
1.4083
1.40832
1.40001
1.41058
1.62141
2.19117
5.99218
6.00051
6.02129
6.09199
6.2943
6.47511
6.55514
6.68462
6.51169
1.40845
1.40845
1.40845
1.40845
1.40845
1.40845
1.40845
1.40845
1.40845
1.40845
1.40838
1.40812
1.40381
1.39946
1.55479
1.99153
5.30708
6.14085
6.00409
5.95206
6.02817
6.19826
6.22523
6.37373
5.43613
1.40845
1.40845
1.40845
1.40845
1.40845
1.40845
1.40845
1.40845
1.40845
1.40844
1.40845
1.40802
1.40706
1.3881
1.49291
1.81695
4.54901
6.35957
5.94512
5.86285
5.83373
5.89307
5.78102
5.73131
5.39476
1.40845
1.40845
1.40845
1.40845
1.40845
1.40845
1.40845
1.40845
1.40845
1.40845
1.40843
1.40825
1.40721
1.39521
1.45099
1.87966
3.67382
6.68791
5.98698
5.83114
5.74126
5.68865
5.54611
5.34323
5.38489
1.40845
1.40845
1.40845
1.40845
1.40845
1.40845
1.40845
1.40845
1.40845
1.40845
1.40844
1.4083
1.40769
1.39727
1.42207
1.76413
2.84456
6.47036
6.06289
5.85896
5.69469
5.57336
5.3924
5.17412
5.14234
1.40845
1.40845
1.40845
1.40845
1.40845
1.40845
1.40845
1.40845
1.40845
1.40845
1.40846
1.40827
1.40838
1.39892
1.4158
1.64187
2.31033
5.76908
6.05027
5.92326
5.69185
5.49598
5.27384
5.05131
4.85718
1.40845
1.40845
1.40845
1.40845
1.40845
1.40845
1.40845
1.40845
1.40845
1.40845
1.40845
1.4084
1.4081
1.40456
1.40064
1.53014
1.8967
4.61291
6.09675
6.006
5.74587
5.4594
5.21411
4.98787
4.72272
1.40845
1.40845
1.40845
1.40845
1.40845
1.40845
1.40845
1.40845
1.40845
1.40845
1.40844
1.40849
1.40795
1.40865
1.38707
1.44649
1.67659
3.51279
5.93825
5.8625
5.66327
5.445
5.20276
4.95395
4.67129
1.40845
1.40845
1.40845
1.40845
1.40845
1.40845
1.40845
1.40845
1.40845
1.40845
1.40845
1.40846
1.40823
1.40811
1.39702
1.42406
1.72011
2.58658
5.55965
5.69719
5.6747
5.46971
5.23119
4.96269
4.67473
1.40845
1.40845
1.40845
1.40845
1.40845
1.40845
1.40845
1.40845
1.40845
1.40845
1.40845
1.40845
1.40838
1.40801
1.40364
1.40201
1.58321
2.04598
4.6728
5.6662
5.68978
5.47436
5.24395
4.98666
4.69674
1.40845
1.40845
1.40845
1.40845
1.40845
1.40845
1.40845
1.40845
1.40845
1.40845
1.40845
1.40843
1.40849
1.40782
1.40848
1.38251
1.48554
1.64983
3.55475
5.54395
5.61485
5.40916
5.20116
4.98337
4.72951
1.40845
1.40845
1.40845
1.40845
1.40845
1.40845
1.40845
1.40845
1.40845
1.40845
1.40845
1.40845
1.40844
1.40834
1.40758
1.40195
1.41763
1.64976
2.46299
5.0726
5.39251
5.39777
5.19973
4.98977
4.75752
1.40845
1.40845
1.40845
1.40845
1.40845
1.40845
1.40845
1.40845
1.40845
1.40845
1.40845
1.40845
1.40842
1.40875
1.40672
1.41174
1.36407
1.59868
1.93889
4.03125
5.40527
5.4074
5.2243
5.02664
4.80182
1.40845
1.40845
1.40845
1.40845
1.40845
1.40845
1.40845
1.40845
1.40845
1.40845
1.40845
1.40845
1.40845
1.40844
1.40826
1.40734
1.40037
1.43604
1.60426
2.84253
5.09499
5.1892
5.1647
5.02418
4.83195
1.40845
1.40845
1.40845
1.40845
1.40845
1.40845
1.40845
1.40845
1.40845
1.40845
1.40845
1.40845
1.40845
1.40842
1.40866
1.40736
1.42237
1.32804
1.53439
2.05519
4.23561
5.1908
5.20461
5.05711
4.86875
1.40845
1.40845
1.40845
1.40845
1.40845
1.40845
1.40845
1.40845
1.40845
1.40845
1.40845
1.40845
1.40845
1.40845
1.40843
1.40821
1.40728
1.39689
1.46398
1.56344
3.11947
5.00712
5.09884
5.03747
4.88334
1.40845
1.40845
1.40845
1.40845
1.40845
1.40845
1.40845
1.40845
1.40845
1.40845
1.40845
1.40845
1.40845
1.40844
1.40841
1.40886
1.40655
1.4141
1.33774
1.51514
2.11618
4.20536
5.01538
5.05872
4.9077
1.40845
1.40845
1.40845
1.40845
1.40845
1.40845
1.40845
1.40845
1.40845
1.40845
1.40845
1.40845
1.40845
1.40845
1.40845
1.40843
1.40818
1.40724
1.396
1.47774
1.59375
3.09251
4.83096
4.93695
4.87694
1.40845
1.40845
1.40845
1.40845
1.40845
1.40845
1.40845
1.40845
1.40845
1.40845
1.40845
1.40845
1.40845
1.40845
1.40845
1.40842
1.40888
1.40593
1.41546
1.33725
1.49342
2.07342
4.02422
4.85436
4.8838
1.40845
1.40845
1.40845
1.40845
1.40845
1.40845
1.40845
1.40845
1.40845
1.40845
1.40845
1.40845
1.40845
1.40845
1.40845
1.40845
1.40844
1.40817
1.40771
1.39434
1.46805
1.55961
2.94406
4.63428
4.74346
1.40845
1.40845
1.40845
1.40845
1.40845
1.40845
1.40845
1.40845
1.40845
1.40845
1.40845
1.40845
1.40845
1.40845
1.40845
1.40845
1.40843
1.4088
1.40561
1.4122
1.35315
1.49206
1.97973
3.75087
4.70237
1.40845
1.40845
1.40845
1.40845
1.40845
1.40845
1.40845
1.40845
1.40845
1.40845
1.40845
1.40845
1.40845
1.40845
1.40845
1.40845
1.40844
1.40844
1.40815
1.40786
1.39497
1.44664
1.50717
2.68625
4.33819
1.40845
1.40845
1.40845
1.40845
1.40845
1.40845
1.40845
1.40845
1.40845
1.40845
1.40845
1.40845
1.40845
1.40845
1.40845
1.40845
1.40845
1.40845
1.40865
1.40599
1.40807
1.36689
1.50019
1.81415
3.34965
1.40845
1.40845
1.40845
1.40845
1.40845
1.40845
1.40845
1.40845
1.40845
1.40845
1.40845
1.40845
1.40845
1.40845
1.40845
1.40845
1.40845
1.40845
1.40843
1.40825
1.40749
1.40034
1.42224
1.54079
2.40561
1.40845
1.40845
1.40845
1.40845
1.40845
1.40845
1.40845
1.40845
1.40845
1.40845
1.40845
1.40845
1.40845
1.40845
1.40845
1.40845
1.40845
1.40845
1.40845
1.40841
1.408
1.40799
1.38368
1.50293
1.68988
1.40845
1.40845
1.40845
1.40845
1.40845
1.40845
1.40845
1.40845
1.40845
1.40845
1.40845
1.40845
1.40845
1.40845
1.40845
1.40845
1.40845
1.40845
1.40845
1.40841
1.40855
1.40471
1.43259
1.30678
1.41233
1.40845
1.40845
1.40845
1.40845
1.40845
1.40845
1.40845
1.40845
1.40845
1.40845
1.40845
1.40845
1.40845
1.40845
1.40845
1.40845
1.40845
1.40845
1.40845
1.40844
1.40859
1.40735
1.40808
1.39379
1.43611
1.40845
1.40845
1.40845
1.40845
1.40845
1.40845
1.40845
1.40845
1.40845
1.40845
1.40845
1.40845
1.40845
1.40845
1.40845
1.40845
1.40845
1.40845
1.40845
1.40845
1.40845
1.40846
1.40801
1.41051
1.36391
1.40845
1.40845
1.40845
1.40845
1.40845
1.40845
1.40845
1.40845
1.40845
1.40845
1.40845
1.40845
1.40845
1.40845
1.40845
1.40845
1.40845
1.40845
1.40845
1.40845
1.40845
1.40845
1.4084
1.40827
1.40587
1.40845
1.40845
1.40845
1.40845
1.40845
1.40845
1.40845
1.40845
1.40845
1.40845
1.40845
1.40845
1.40845
1.40845
1.40845
1.40845
1.40845
1.40845
1.40845
1.40845
1.40845
1.40845
1.40845
1.40831
1.40763
1.40845
1.40845
1.40845
1.40845
1.40845
1.40845
1.40845
1.40845
1.40845
1.40845
1.40845
1.40845
1.40845
1.40845
1.40845
1.40845
1.40845
1.40845
1.40845
1.40845
1.40845
1.40845
1.40843
1.40852
1.40772
1.40845
1.40845
1.40845
1.40845
1.40845
1.40845
1.40845
1.40845
1.40845
1.40845
1.40845
1.40845
1.40845
1.40845
1.40845
1.40845
1.40845
1.40845
1.40845
1.40845
1.40845
1.40845
1.40846
1.40843
1.40846
1.40845
1.40845
1.40845
1.40845
1.40845
1.40845
1.40845
1.40845
1.40845
1.40845
1.40845
1.40845
1.40845
1.40845
1.40845
1.40845
1.40845
1.40845
1.40845
1.40845
1.40845
1.40845
1.40845
1.40845
1.40855
1.40845
1.40845
1.40845
1.40845
1.40845
1.40845
1.40845
1.40845
1.40845
1.40845
1.40845
1.40845
1.40845
1.40845
1.40845
1.40845
1.40845
1.40845
1.40845
1.40845
1.40845
1.40845
1.40845
1.40845
1.40845
1.40845
1.40845
1.40845
1.40845
1.40845
1.40845
1.40845
1.40845
1.40845
1.40845
1.40845
1.40845
1.40845
1.40845
1.40845
1.40845
1.40845
1.40845
1.40845
1.40845
1.40845
1.40845
1.40845
1.40845
1.40845
1.40845
1.40845
1.40845
1.40845
1.40845
1.40845
1.40845
1.40845
1.40845
1.40845
1.40845
1.40845
1.40845
1.40845
1.40845
1.40845
1.40845
1.40845
1.40845
1.40845
1.40845
1.40845
1.40845
1.40845
1.40845
1.40845
1.40845
1.40845
1.40845
1.40845
1.40845
1.40845
1.40845
1.40845
1.40845
1.40845
1.40845
1.40845
1.40845
1.40845
1.40845
1.40845
1.40845
1.40845
1.40845
1.40845
1.40845
1.40845
1.40845
1.40845
1.40845
1.40845
1.40845
1.40845
1.40845
1.40845
1.40845
1.40845
1.40845
1.40845
1.40845
1.40845
1.40845
1.40845
1.40845
1.40845
1.40845
1.40845
1.40845
1.40845
1.40845
1.40845
1.40845
1.40845
1.40845
1.40845
1.40845
1.40845
1.40845
1.40845
1.40845
1.40845
1.40845
1.40845
1.40845
1.40845
1.40845
1.40845
1.40845
1.40845
1.40845
1.40845
1.40845
1.40845
1.40845
1.40845
1.40845
1.40845
1.40845
1.40845
1.40845
1.40845
1.40845
1.40845
1.40845
1.40845
1.40845
1.40845
1.40845
1.40845
1.40845
1.40845
1.40845
1.40845
1.40845
1.40845
1.40845
1.40845
1.40845
1.40845
1.40845
1.40845
1.40845
1.40845
1.40845
1.40845
1.40845
1.40845
1.40845
1.40845
1.40845
1.40845
1.40845
1.40845
1.40845
1.40845
1.40845
1.40845
1.40845
1.40845
1.40845
1.40845
1.40845
1.40845
1.40845
1.40845
1.40845
1.40845
1.40845
1.40845
1.92568
1.92262
1.93341
1.67943
1.81807
1.78982
1.66226
1.43757
1.3784
1.36184
1.37176
1.37897
1.37916
1.36235
1.29609
1.23659
1.207
1.20038
1.20253
1.21415
1.21704
1.2181
1.21758
1.2145
1.20965
1.20366
1.19912
1.19587
1.19469
1.19488
1.19705
1.21186
1.23376
1.27126
1.32845
1.38016
1.44014
1.51228
1.59829
1.67124
1.74852
1.84185
1.92038
2.00987
2.09034
2.15817
2.20433
2.27557
2.32156
2.3578
2.36944
2.41683
2.4386
2.46196
2.48075
2.48972
2.49521
2.49848
2.49732
2.4924
2.48533
2.47568
2.4636
2.45006
2.43494
2.41907
2.40208
2.38407
2.3652
2.34568
2.32627
2.30699
2.288
2.26868
2.24991
2.23109
2.21289
2.19469
2.17674
2.15859
2.14057
2.12244
2.10469
2.08702
2.07008
2.05329
2.03722
2.02112
2.00565
1.99008
1.97514
1.96005
1.94567
1.93106
1.91717
1.90301
1.88901
1.87695
1.85692
1.84061
2.86071
2.55178
2.09076
1.75153
1.89002
1.82267
1.68803
1.32807
1.19652
1.16654
1.19509
1.21108
1.20885
1.17228
1.11075
1.07834
1.05276
1.04147
1.04119
1.04423
1.04868
1.0505
1.05081
1.0479
1.0464
1.03994
1.03599
1.02863
1.02615
1.02532
1.02741
1.04233
1.06016
1.08645
1.13313
1.17396
1.22904
1.30555
1.38963
1.48205
1.57552
1.67331
1.77111
1.86583
1.9474
2.04491
2.1088
2.18597
2.26833
2.32789
2.399
2.4714
2.51789
2.56038
2.60089
2.62686
2.64651
2.66381
2.67895
2.68331
2.68326
2.6816
2.67575
2.66553
2.65246
2.63848
2.62411
2.60873
2.59097
2.57137
2.55163
2.53213
2.51312
2.49398
2.47543
2.45645
2.43793
2.41888
2.39997
2.38077
2.36164
2.34253
2.32395
2.30512
2.28692
2.26868
2.2511
2.23373
2.21694
2.20061
2.18495
2.16949
2.15482
2.1401
2.12576
2.1109
2.09573
2.08265
2.05921
2.03944
3.79611
3.05051
2.57599
2.10792
2.00527
1.89316
1.66279
1.3076
1.13607
1.12236
1.13749
1.15964
1.1729
1.15772
1.10746
1.01365
0.9633
0.950836
0.950732
0.966489
0.969796
0.971203
0.968402
0.9657
0.960618
0.95799
0.952701
0.950404
0.949173
0.949384
0.948636
0.958993
0.974424
1.00018
1.04896
1.10087
1.15776
1.22395
1.29146
1.36318
1.45356
1.56849
1.69068
1.83369
1.98686
2.15705
2.26416
2.37708
2.48871
2.58707
2.67757
2.75758
2.82237
2.86554
2.9066
2.93274
2.95112
2.96502
2.97774
2.9849
2.9829
2.97604
2.96616
2.954
2.93908
2.92113
2.90154
2.88115
2.85986
2.83675
2.81342
2.78993
2.76653
2.74344
2.7211
2.69914
2.67794
2.65622
2.6345
2.61228
2.59017
2.56796
2.54633
2.52498
2.50451
2.48442
2.46502
2.44571
2.42699
2.40834
2.39031
2.37214
2.35473
2.33812
2.32187
2.30573
2.28959
2.2747
2.25234
2.23059
4.40882
3.5498
3.02316
2.53346
2.24633
2.06908
1.8859
1.60871
1.37754
1.23057
1.18495
1.17646
1.17545
1.15552
1.09008
0.986637
0.951412
0.937826
0.937516
0.948236
0.953503
0.960327
0.978563
0.974699
0.971424
0.96474
0.962961
0.948133
0.943313
0.940043
0.938747
0.952684
0.964975
0.974872
1.00345
1.03326
1.0835
1.16459
1.27785
1.41849
1.60037
1.765
1.93206
2.08798
2.25096
2.40194
2.5303
2.6595
2.7625
2.88394
2.94531
3.01788
3.06721
3.11042
3.15349
3.17106
3.18101
3.18623
3.19348
3.19782
3.19111
3.18156
3.16848
3.15194
3.13407
3.11404
3.09272
3.07046
3.0473
3.02124
2.99465
2.96842
2.94245
2.9167
2.89148
2.86716
2.84379
2.82065
2.79699
2.77265
2.74792
2.72349
2.69989
2.67713
2.65511
2.63359
2.61242
2.59151
2.5711
2.55144
2.53227
2.51346
2.4948
2.47705
2.45941
2.4418
2.42406
2.4066
2.3827
2.35728
4.47267
3.88047
3.32907
2.9096
2.65607
2.40892
2.17678
1.91108
1.59976
1.432
1.35967
1.32098
1.26619
1.22773
1.18725
1.11736
1.04928
0.998556
0.973053
0.965461
0.966539
0.97065
0.97051
0.969842
0.966378
0.961922
0.954363
0.945835
0.943233
0.94585
0.948163
0.949626
0.954114
0.968294
1.00651
1.06916
1.15535
1.27618
1.42713
1.59144
1.77379
1.93361
2.11699
2.29819
2.46474
2.60542
2.74876
2.84287
2.93259
3.03701
3.09827
3.17276
3.22942
3.26846
3.29178
3.30077
3.31459
3.323
3.32788
3.32821
3.31972
3.30723
3.29341
3.27715
3.25927
3.23887
3.21676
3.19384
3.16919
3.14305
3.11638
3.0895
3.06226
3.035
3.00823
2.98216
2.95684
2.93207
2.90725
2.88189
2.85674
2.83222
2.80829
2.78466
2.76152
2.73881
2.71639
2.69426
2.67279
2.65215
2.63188
2.61213
2.59237
2.57371
2.55541
2.53707
2.51855
2.4997
2.47502
2.44674
4.43238
4.02481
3.56833
3.1713
2.93655
2.74172
2.52111
2.26858
1.92229
1.68323
1.58129
1.52212
1.45128
1.37738
1.30417
1.21021
1.13269
1.08308
1.05924
1.04258
1.03734
1.02349
1.01518
1.00193
0.99687
0.984368
0.981364
0.968433
0.964497
0.955306
0.955344
0.960403
0.976871
1.00243
1.05864
1.13612
1.24092
1.38255
1.53079
1.67075
1.8373
1.98853
2.14749
2.33584
2.51609
2.70132
2.85607
2.94446
3.03727
3.09071
3.14365
3.22829
3.30813
3.35852
3.37336
3.38972
3.40506
3.40892
3.40712
3.40954
3.40502
3.39482
3.38297
3.36747
3.34797
3.3237
3.29722
3.27101
3.24621
3.2226
3.19718
3.17018
3.1426
3.11491
3.08747
3.06078
3.03479
3.00919
2.98342
2.95733
2.93104
2.90543
2.88083
2.85721
2.83444
2.8126
2.79137
2.76966
2.74753
2.72602
2.70477
2.68377
2.66273
2.64292
2.62391
2.60505
2.58622
2.56662
2.54237
2.51248
4.34173
4.05466
3.70568
3.38876
3.14124
2.98274
2.8022
2.62289
2.36727
2.06295
1.85626
1.76569
1.69766
1.61846
1.53862
1.43656
1.33727
1.25958
1.20259
1.16929
1.14378
1.12461
1.10311
1.08019
1.06109
1.04181
1.02522
1.00845
0.999826
0.997216
0.998899
1.01988
1.04077
1.08743
1.16785
1.28978
1.4167
1.53823
1.65094
1.74444
1.85501
1.94173
2.05193
2.17976
2.31275
2.47024
2.66395
2.9173
3.0875
3.14537
3.19508
3.24653
3.29755
3.36621
3.42163
3.43986
3.44889
3.44864
3.4438
3.44925
3.45072
3.44445
3.43305
3.41145
3.38765
3.36332
3.33901
3.31616
3.29433
3.26942
3.24211
3.21498
3.18817
3.16161
3.1352
3.10888
3.08227
3.05539
3.02855
3.00193
2.97637
2.95191
2.92833
2.90561
2.8836
2.86151
2.83905
2.81629
2.79389
2.77237
2.75119
2.73031
2.70922
2.68921
2.67018
2.65125
2.63228
2.61238
2.58788
2.5567
4.3253
4.02509
3.75926
3.49411
3.26687
3.12766
2.98323
2.81646
2.63734
2.39912
2.15711
2.00376
1.92093
1.85375
1.77256
1.69808
1.58821
1.47902
1.39268
1.34986
1.31724
1.29068
1.27259
1.23725
1.20169
1.16052
1.14055
1.10569
1.11105
1.06625
1.09402
1.17936
1.23812
1.32182
1.43168
1.54753
1.61214
1.67935
1.7513
1.81336
1.87162
1.92462
1.99677
2.07039
2.15069
2.26553
2.41119
2.57725
2.7767
3.0853
3.29961
3.30376
3.31327
3.33639
3.3777
3.41887
3.46166
3.46973
3.47375
3.46808
3.46246
3.45182
3.44017
3.42532
3.40619
3.38609
3.36447
3.33989
3.31545
3.2904
3.26448
3.2382
3.21224
3.18672
3.16109
3.13487
3.10789
3.08007
3.05314
3.0277
3.00371
2.98079
2.95796
2.93526
2.91266
2.8902
2.86796
2.84594
2.82413
2.80306
2.78225
2.76152
2.74053
2.72037
2.70111
2.68206
2.66307
2.64321
2.61885
2.58697
4.37033
4.04263
3.77556
3.53001
3.36706
3.21126
3.09103
2.95755
2.80749
2.64103
2.43393
2.25047
2.13549
2.07085
1.99999
1.92091
1.84134
1.72607
1.62008
1.54263
1.50839
1.47508
1.45773
1.42621
1.39188
1.35378
1.31315
1.28602
1.25507
1.25405
1.30882
1.48065
1.59352
1.69636
1.80022
1.84576
1.84747
1.8341
1.86045
1.88304
1.91947
1.95626
1.99354
2.0182
2.05831
2.11884
2.19258
2.30515
2.46268
2.6357
2.91069
3.22518
3.38284
3.3683
3.35567
3.3701
3.40275
3.45282
3.46858
3.46458
3.45112
3.4408
3.43158
3.42438
3.41367
3.39516
3.36866
3.34444
3.32174
3.29948
3.27697
3.25336
3.22804
3.20218
3.17646
3.15079
3.12495
3.098
3.07095
3.04585
3.02236
2.99967
2.97715
2.95487
2.9329
2.91129
2.88968
2.86779
2.84605
2.82494
2.80416
2.78353
2.76311
2.74318
2.72383
2.70468
2.68543
2.66519
2.64023
2.60736
4.43763
4.11549
3.84704
3.58516
3.43372
3.26869
3.16839
3.05613
2.91802
2.76461
2.60658
2.42243
2.29511
2.21052
2.15105
2.08246
2.01745
1.94684
1.86116
1.76237
1.68911
1.66032
1.63284
1.61988
1.58742
1.56324
1.52416
1.50844
1.49349
1.55572
1.79834
1.96269
2.05253
2.12558
2.16071
2.10398
2.05471
2.02412
2.01021
2.00367
2.00613
2.00735
2.01895
2.02738
2.04288
2.06098
2.09369
2.14527
2.2069
2.31669
2.4936
2.67231
3.08911
3.39188
3.39024
3.37688
3.38135
3.38888
3.42438
3.44799
3.4473
3.44314
3.43477
3.42501
3.41418
3.40047
3.37623
3.35171
3.33142
3.31167
3.28929
3.26475
3.23963
3.21493
3.19099
3.167
3.14137
3.11381
3.08633
3.0606
3.03661
3.01372
2.99124
2.96898
2.94683
2.9249
2.90312
2.88172
2.86095
2.84085
2.82092
2.80098
2.78068
2.76021
2.74002
2.71992
2.69972
2.67857
2.65258
2.61861
4.49864
4.18377
3.90709
3.6625
3.47139
3.31555
3.21467
3.11032
2.99499
2.86518
2.71589
2.56348
2.41089
2.30704
2.24691
2.18705
2.13269
2.07697
2.02052
1.94146
1.85664
1.79949
1.7771
1.75433
1.73837
1.7146
1.70363
1.70163
1.78787
1.9152
2.40852
2.48944
2.5473
2.5657
2.48159
2.38797
2.31692
2.27498
2.22041
2.18559
2.15192
2.1187
2.08203
2.0583
2.05944
2.05843
2.06364
2.06824
2.08318
2.13257
2.2161
2.34734
2.54767
2.81415
3.23675
3.44012
3.45228
3.39152
3.38923
3.3965
3.43144
3.43431
3.43393
3.42983
3.41262
3.3957
3.37884
3.36021
3.34072
3.3201
3.29472
3.2716
3.24933
3.22684
3.20325
3.17874
3.15015
3.12169
3.09466
3.06895
3.04446
3.02097
2.99811
2.97573
2.95357
2.93171
2.91022
2.88915
2.86853
2.84838
2.82839
2.80834
2.78827
2.76804
2.74777
2.72742
2.70689
2.68538
2.65899
2.6241
4.55792
4.2652
3.99383
3.7486
3.52767
3.37619
3.24562
3.14655
3.0461
2.9278
2.79946
2.6815
2.52385
2.40024
2.31413
2.26995
2.23085
2.18117
2.13159
2.06222
1.98728
1.92538
1.88588
1.85303
1.83745
1.83152
1.84333
1.89987
2.05179
2.47511
2.89199
2.95492
2.95736
2.8941
2.7699
2.67242
2.58945
2.51246
2.44162
2.38269
2.32483
2.27701
2.22986
2.18624
2.13087
2.09269
2.05796
2.04882
2.0573
2.07244
2.09088
2.14041
2.23718
2.40737
2.57923
3.04518
3.40207
3.4435
3.42084
3.38613
3.38608
3.41205
3.41425
3.4131
3.40719
3.39567
3.38093
3.36515
3.3498
3.33216
3.31046
3.28339
3.25811
3.23365
3.20917
3.18407
3.15804
3.13098
3.10542
3.08116
3.05769
3.03467
3.01205
2.99006
2.96862
2.94773
2.92705
2.90584
2.88427
2.86302
2.84199
2.82101
2.80005
2.77921
2.7585
2.73787
2.71719
2.69556
2.66911
2.63314
4.60335
4.33033
4.06891
3.83372
3.60363
3.43137
3.29177
3.19301
3.08735
2.97673
2.85809
2.7518
2.63109
2.48765
2.38448
2.33162
2.28898
2.24664
2.20467
2.13536
2.0785
2.02533
1.96761
1.91993
1.91328
1.92495
1.97211
2.14644
2.41408
3.08688
3.24052
3.25639
3.21041
3.09723
2.99577
2.88887
2.7926
2.69916
2.61182
2.53756
2.4678
2.4052
2.34913
2.2924
2.24226
2.20016
2.12952
2.09249
2.07532
2.0676
2.06524
2.07482
2.10083
2.16206
2.28674
2.49077
2.71536
3.20571
3.47951
3.51084
3.42042
3.38521
3.38215
3.41049
3.41356
3.4082
3.3915
3.37564
3.35638
3.34085
3.32252
3.30122
3.27774
3.25376
3.22832
3.20314
3.1778
3.15248
3.1257
3.10028
3.07683
3.05482
3.03396
3.01414
2.99488
2.97559
2.95503
2.93356
2.91122
2.88852
2.86577
2.8431
2.82057
2.79829
2.77637
2.7549
2.73376
2.71194
2.68553
2.64821
4.64701
4.38945
4.13677
3.92568
3.69282
3.49917
3.35662
3.24501
3.13415
3.03193
2.91299
2.79251
2.70461
2.57639
2.45952
2.38258
2.3389
2.29958
2.24415
2.19651
2.15258
2.10735
2.01858
1.98446
1.97839
2.01181
2.15309
2.35868
3.01258
3.46581
3.47835
3.43166
3.35657
3.27329
3.17986
3.0811
2.97138
2.86851
2.77784
2.69074
2.60925
2.54037
2.47423
2.41527
2.35981
2.29285
2.2441
2.21024
2.16328
2.11418
2.07982
2.06594
2.0761
2.08664
2.12568
2.19993
2.35074
2.55777
2.95291
3.37767
3.4815
3.46016
3.38277
3.36205
3.37332
3.37398
3.37166
3.36523
3.35513
3.32997
3.31215
3.29671
3.28023
3.26051
3.23731
3.20785
3.18114
3.15665
3.13206
3.10747
3.0838
3.06154
3.0409
3.02135
3.0017
2.98156
2.96087
2.93862
2.91546
2.89301
2.87098
2.84925
2.82766
2.80615
2.78474
2.76347
2.74211
2.7197
2.69241
2.65335
4.68296
4.43666
4.18698
3.98786
3.77223
3.57356
3.43214
3.30953
3.20114
3.08957
2.97516
2.85459
2.75728
2.64914
2.52457
2.43667
2.38996
2.33217
2.28538
2.24606
2.21241
2.12602
2.06406
2.05449
2.07076
2.17456
2.3769
2.98035
3.51692
3.56687
3.56515
3.53469
3.48037
3.40715
3.31903
3.22148
3.11869
3.02013
2.92111
2.82836
2.74382
2.66815
2.59746
2.53225
2.46396
2.40555
2.35974
2.3063
2.2488
2.21259
2.17143
2.13669
2.10249
2.07496
2.0767
2.08195
2.12885
2.23309
2.42392
2.63201
3.14399
3.47459
3.48125
3.40767
3.34201
3.33776
3.35249
3.3487
3.34629
3.3352
3.31032
3.28498
3.2657
3.24654
3.22551
3.20207
3.17834
3.15463
3.13216
3.11001
3.08812
3.06742
3.04764
3.02787
3.00748
2.98671
2.9655
2.94379
2.92152
2.89901
2.87722
2.85576
2.83425
2.81258
2.79076
2.76877
2.74647
2.7231
2.69492
2.6542
4.71909
4.48625
4.24071
4.04232
3.84602
3.63768
3.49558
3.38242
3.27361
3.15833
3.04766
2.93645
2.82516
2.7343
2.603
2.49255
2.42279
2.37288
2.32515
2.27841
2.21925
2.15942
2.13441
2.13729
2.21396
2.46722
2.90501
3.47257
3.63629
3.6415
3.62758
3.59758
3.55254
3.4932
3.42093
3.33717
3.24459
3.14954
3.05083
2.95833
2.86927
2.78944
2.71636
2.64136
2.57449
2.52414
2.45411
2.38785
2.34952
2.31035
2.26632
2.21738
2.16834
2.11784
2.07572
2.06435
2.06288
2.08389
2.15236
2.28774
2.51122
2.81463
3.26556
3.46602
3.48092
3.36308
3.30381
3.30185
3.30831
3.31112
3.30767
3.29378
3.26774
3.24575
3.22448
3.20214
3.17935
3.15603
3.13111
3.10928
3.0897
3.07146
3.05373
3.03546
3.01618
2.99593
2.97463
2.95172
2.92787
2.90459
2.88196
2.85976
2.83786
2.81605
2.79424
2.77227
2.74979
2.726
2.69713
2.65456
4.7269
4.52573
4.29897
4.09674
3.92191
3.70737
3.54938
3.44827
3.34064
3.22981
3.11908
3.00854
2.89539
2.79919
2.69206
2.5641
2.46753
2.41717
2.36938
2.29512
2.23016
2.21531
2.21412
2.26559
2.48118
2.82601
3.432
3.67533
3.68358
3.67764
3.65942
3.63523
3.60242
3.558
3.49818
3.4266
3.34588
3.26044
3.1688
3.07717
2.98908
2.91246
2.82568
2.75062
2.68866
2.62861
2.54814
2.50118
2.44836
2.38604
2.32816
2.28341
2.23956
2.19765
2.14158
2.10035
2.0506
2.04716
2.04911
2.0865
2.18398
2.36463
2.56031
3.05696
3.43048
3.44926
3.4165
3.31502
3.25378
3.25775
3.26738
3.26869
3.26144
3.2458
3.21692
3.19297
3.1739
3.15537
3.1362
3.11075
3.08818
3.06947
3.05241
3.03558
3.01778
2.99885
2.97894
2.9561
2.93128
2.90812
2.88578
2.86365
2.84172
2.81974
2.79749
2.77469
2.7511
2.72617
2.69617
2.65168
4.73864
4.56272
4.36004
4.15059
3.99378
3.78211
3.60322
3.50339
3.40562
3.29008
3.18318
3.07981
2.97751
2.87798
2.76788
2.6336
2.53491
2.46115
2.39308
2.32088
2.28889
2.28811
2.3325
2.51465
2.79587
3.45547
3.73208
3.75427
3.72959
3.70829
3.69124
3.67342
3.64857
3.61265
3.5641
3.50351
3.43329
3.35289
3.26835
3.18248
3.10406
3.01581
2.92957
2.86388
2.80069
2.71211
2.6509
2.58996
2.51797
2.45253
2.39831
2.35421
2.30862
2.25991
2.21203
2.16827
2.11168
2.05066
2.02446
2.03579
2.06352
2.1278
2.24738
2.4425
2.67103
3.16577
3.41691
3.42274
3.33053
3.24796
3.23136
3.23364
3.24596
3.24301
3.22912
3.20345
3.1723
3.1487
3.12892
3.10908
3.08939
3.07057
3.05327
3.037
3.02065
3.003
2.98383
2.96357
2.93857
2.91416
2.89083
2.86764
2.84462
2.82165
2.79858
2.77502
2.75058
2.72474
2.69382
2.64766
4.71992
4.5952
4.4382
4.23236
4.06197
3.87027
3.66374
3.54591
3.46285
3.35274
3.22938
3.12645
3.03688
2.95134
2.8556
2.70924
2.60501
2.50852
2.42321
2.37394
2.36879
2.40564
2.56236
2.80213
3.49306
3.81528
3.84975
3.80435
3.76804
3.74899
3.73122
3.71199
3.68864
3.65873
3.62116
3.57201
3.51178
3.44063
3.36292
3.28221
3.19652
3.10645
3.0345
2.96412
2.87689
2.79851
2.73251
2.65372
2.5926
2.53303
2.47261
2.41885
2.3689
2.32395
2.27631
2.21124
2.16145
2.10421
2.0656
2.04526
2.04565
2.04907
2.07032
2.13798
2.29332
2.51665
2.88101
3.28756
3.36537
3.35716
3.26294
3.2039
3.20233
3.20757
3.20359
3.19157
3.17194
3.14473
3.11643
3.09644
3.08112
3.06551
3.05034
3.03531
3.02
3.00319
2.98481
2.96621
2.94343
2.91785
2.8935
2.86957
2.84575
2.82194
2.798
2.77346
2.74807
2.72147
2.69008
2.64258
4.72153
4.59406
4.45973
4.29702
4.12217
3.96986
3.74928
3.58644
3.50497
3.41498
3.28596
3.16822
3.07814
3.00015
2.92595
2.79767
2.68932
2.54338
2.48466
2.46914
2.49346
2.63024
2.83553
3.53071
3.92765
3.95469
3.91423
3.86147
3.82593
3.79902
3.77507
3.75216
3.72986
3.70469
3.67345
3.63283
3.5815
3.52034
3.44938
3.37141
3.28481
3.20565
3.13018
3.03426
2.95438
2.8835
2.803
2.73144
2.66941
2.61017
2.54675
2.49298
2.44117
2.39015
2.33758
2.28355
2.23237
2.19286
2.15243
2.10995
2.05994
2.02475
2.02571
2.0476
2.08315
2.1685
2.34431
2.53253
3.01573
3.30959
3.31752
3.28877
3.2068
3.15762
3.16289
3.16154
3.15628
3.14433
3.12785
3.09844
3.07803
3.06433
3.05217
3.03878
3.02274
3.00465
2.98616
2.96784
2.94399
2.91761
2.89318
2.86923
2.8451
2.8206
2.79577
2.77032
2.74397
2.71671
2.68524
2.63629
4.60136
4.61323
4.49181
4.3428
4.16973
4.03353
3.83812
3.642
3.5375
3.45532
3.33967
3.21072
3.10724
3.03281
2.96264
2.86881
2.72773
2.626
2.56596
2.58694
2.71184
2.93052
3.60008
4.07381
4.07138
4.04445
4.00012
3.95657
3.90692
3.86668
3.83442
3.80443
3.77576
3.74677
3.71542
3.67826
3.63319
3.57842
3.51543
3.44448
3.36933
3.28945
3.20317
3.11846
3.044
2.96451
2.88886
2.81496
2.74937
2.68467
2.62552
2.56237
2.50549
2.45149
2.39727
2.34589
2.28944
2.23744
2.1914
2.14947
2.11553
2.07116
2.05035
2.04086
2.02449
2.03749
2.08153
2.21656
2.4209
2.68938
3.13454
3.31004
3.31095
3.24909
3.17525
3.1281
3.13197
3.13083
3.12391
3.11171
3.08872
3.06711
3.05173
3.03724
3.02299
3.00755
2.98988
2.97077
2.94313
2.91452
2.88891
2.86494
2.84109
2.81672
2.79191
2.76632
2.73944
2.71119
2.67809
2.62742
4.51252
4.5693
4.50606
4.37773
4.22401
4.07773
3.91956
3.70722
3.57266
3.49024
3.39268
3.261
3.15139
3.06956
3.00574
2.90456
2.76824
2.71926
2.70434
2.79514
3.02874
3.66334
4.20721
4.20126
4.17232
4.13354
4.09381
4.04091
3.98776
3.93481
3.88463
3.844
3.80998
3.77731
3.74456
3.70911
3.66858
3.62111
3.56565
3.50297
3.43312
3.35839
3.27977
3.2008
3.11763
3.03845
2.9602
2.88614
2.81462
2.74839
2.68582
2.62352
2.56319
2.50122
2.44478
2.39389
2.33199
2.27892
2.23582
2.1996
2.16443
2.13029
2.10039
2.04864
2.03685
2.00819
2.00896
2.02189
2.08848
2.2422
2.4178
2.91753
3.25164
3.27787
3.26252
3.17657
3.11851
3.10133
3.10469
3.09918
3.08396
3.06462
3.04469
3.02994
3.01732
3.00472
2.9894
2.97199
2.94672
2.91462
2.88605
2.86081
2.83669
2.81196
2.78603
2.75917
2.73099
2.70153
2.66743
2.61613
3.93209
4.45825
4.53718
4.42962
4.28275
4.11907
3.98472
3.78321
3.60643
3.52133
3.44041
3.32299
3.19905
3.11736
3.06027
2.94465
2.84973
2.83628
2.91705
3.16109
3.72968
4.34441
4.34483
4.31959
4.27283
4.21806
4.16504
4.11314
4.06018
4.00365
3.94177
3.88956
3.84793
3.8098
3.77275
3.73501
3.69515
3.65077
3.6014
3.54521
3.48344
3.41554
3.34327
3.26628
3.18718
3.1079
3.02855
2.95264
2.87695
2.80815
2.74479
2.68604
2.62891
2.5709
2.51555
2.45769
2.39367
2.34097
2.29882
2.26046
2.22167
2.18234
2.14376
2.10967
2.07778
2.03012
2.00101
1.95203
1.95948
2.0232
2.15683
2.34118
2.5714
3.03399
3.25381
3.25355
3.20832
3.13143
3.07946
3.07309
3.06457
3.05445
3.04381
3.0306
3.01637
3.0021
2.98674
2.96463
2.93717
2.90689
2.87807
2.85186
2.82711
2.80198
2.77541
2.7476
2.71885
2.68863
2.6542
2.60233
2.94374
4.27595
4.38623
4.37262
4.27429
4.13383
4.00776
3.86434
3.66207
3.54397
3.4738
3.38258
3.25592
3.16925
3.09881
3.02615
2.99991
3.05561
3.28891
3.79961
4.45632
4.47747
4.46527
4.4252
4.34564
4.28167
4.22684
4.17431
4.12017
4.06345
3.99865
3.93576
3.8836
3.83912
3.79717
3.75618
3.71491
3.67189
3.62569
3.57506
3.51921
3.45783
3.39137
3.32065
3.24654
3.16988
3.09271
3.0166
2.94545
2.87569
2.81099
2.74885
2.68942
2.63314
2.57442
2.50608
2.44666
2.39418
2.34735
2.30443
2.26517
2.22072
2.18801
2.15265
2.11627
2.08411
2.01396
1.96863
1.94579
1.96091
1.99235
2.06277
2.22494
2.42842
2.82188
3.15506
3.21797
3.20689
3.1487
3.07882
3.03077
3.02963
3.02637
3.02149
3.01245
3.00034
2.98597
2.95781
2.92497
2.89691
2.86714
2.83942
2.81456
2.78948
2.76169
2.73144
2.70275
2.67324
2.63966
2.58825
1.92383
3.42668
4.34269
4.37208
4.29041
4.16417
4.03241
3.93095
3.74836
3.59499
3.51121
3.43527
3.30798
3.21362
3.15758
3.15416
3.22464
3.46776