/*--------------------------------*- C++ -*----------------------------------*\
| =========                 |                                                 |
| \\      /  F ield         | OpenFOAM: The Open Source CFD Toolbox           |
|  \\    /   O peration     | Version:  v2106                                 |
|   \\  /    A nd           | Website:  www.openfoam.com                      |
|    \\/     M anipulation  |                                                 |
\*---------------------------------------------------------------------------*/
FoamFile
{
    version     2.0;
    format      ascii;
    arch        "LSB;label=32;scalar=64";
    class       volScalarField;
    location    "18";
    object      T;
}
// * * * * * * * * * * * * * * * * * * * * * * * * * * * * * * * * * * * * * //

dimensions      [0 0 0 1 0 0 0];

internalField   nonuniform List<scalar> 
5250
(
1
1
1
1
1
1
1
1
1.00001
1.0001
1.00088
1.00776
1.0638
1.34579
2.07455
2.86551
2.39544
2.3176
2.36149
2.35735
2.36158
2.37014
2.36985
2.36603
2.36034
1
1
1
1
1
1
1
1
1.00001
1.0001
1.00085
1.00752
1.0621
1.33958
2.06142
2.87632
2.38446
2.30679
2.35255
2.34914
2.35435
2.365
2.36526
2.36212
2.35699
1
1
1
1
1
1
1
1
1.00001
1.00009
1.0008
1.007
1.0584
1.32578
2.03255
2.91265
2.36658
2.2874
2.33503
2.33388
2.34043
2.35267
2.35473
2.35231
2.3477
1
1
1
1
1
1
1
1
1.00001
1.00008
1.00073
1.00631
1.05318
1.30556
1.98908
3.0007
2.36205
2.26843
2.31272
2.31239
2.32117
2.33617
2.34214
2.34095
2.33759
1
1
1
1
1
1
1
1
1.00001
1.00007
1.00064
1.00549
1.04665
1.27863
1.9329
3.05142
2.39694
2.2796
2.31466
2.30238
2.30345
2.31222
2.32371
2.32544
2.32362
1
1
1
1
1
1
1
1
1.00001
1.00006
1.00051
1.00442
1.03953
1.24774
1.86851
3.08348
2.45301
2.30972
2.3311
2.31075
2.30185
2.3023
2.30613
2.30762
2.30537
1
1
1
1
1
1
1
1
1
1.00004
1.00038
1.00344
1.03221
1.21295
1.79022
3.14167
2.54476
2.36355
2.36407
2.3299
2.30649
2.28569
2.28411
2.28595
2.28078
1
1
1
1
1
1
1
1
1
1.00003
1.00033
1.00293
1.02681
1.18512
1.71212
3.11204
2.5781
2.42508
2.40837
2.36239
2.31712
2.28634
2.26232
2.25859
2.24227
1
1
1
1
1
1
1
1
1
1.00003
1.00025
1.00229
1.02111
1.15363
1.62985
3.01407
2.56114
2.48008
2.46195
2.412
2.34116
2.28646
2.23169
2.22543
2.17967
1
1
1
1
1
1
1
1
1
1.00002
1.00021
1.00183
1.01724
1.12913
1.5452
2.86082
2.49084
2.4881
2.47513
2.44257
2.38251
2.30451
2.21658
2.18442
2.0421
1
1
1
1
1
1
1
1
1
1.00002
1.00015
1.00135
1.01238
1.09578
1.45813
2.70702
2.52347
2.43504
2.43723
2.43391
2.39591
2.31697
2.19485
2.06312
1.78189
1
1
1
1
1
1
1
1
1
1.00001
1.00009
1.00085
1.00752
1.0642
1.37278
2.5231
2.58575
2.37051
2.37578
2.40049
2.38809
2.33183
2.21514
2.07974
1.70242
1
1
1
1
1
1
1
1
1
1.00001
1.00007
1.0006
1.00512
1.04426
1.26937
1.95168
2.69781
2.25922
2.29015
2.34714
2.35904
2.32383
2.22659
2.10548
1.73951
1
1
1
1
1
1
1
1
1
1
1.00004
1.00035
1.00311
1.02903
1.19791
1.75181
2.87567
2.26988
2.2371
2.28007
2.31701
2.29493
2.22058
2.1155
1.82064
1
1
1
1
1
1
1
1
1
1
1.00003
1.00025
1.00215
1.01966
1.1431
1.58571
2.88097
2.29328
2.24031
2.22676
2.25639
2.25038
2.20482
2.12273
1.92697
1
1
1
1
1
1
1
1
1
1
1.00002
1.00015
1.00133
1.01181
1.08895
1.44007
2.74931
2.4494
2.20567
2.14154
2.16377
2.19332
2.17455
2.11615
1.98338
1
1
1
1
1
1
1
1
1
1
1.00001
1.00006
1.00056
1.00495
1.04388
1.30072
2.33706
2.64724
2.23498
2.13827
2.14196
2.15226
2.13779
2.09777
2.00312
1
1
1
1
1
1
1
1
1
1
1
1.00004
1.00037
1.00319
1.02817
1.19274
1.74561
2.83482
2.25683
2.18906
2.11864
2.11507
2.09843
2.06687
1.99858
1
1
1
1
1
1
1
1
1
1
1
1.00002
1.00021
1.00178
1.01542
1.11258
1.51695
2.78169
2.35692
2.1992
2.09431
2.07324
2.05324
2.02746
1.9802
1
1
1
1
1
1
1
1
1
1
1
1.00001
1.00008
1.00076
1.00667
1.05773
1.35625
2.53996
2.51894
2.19606
2.06767
2.05432
2.03649
2.00823
1.96254
1
1
1
1
1
1
1
1
1
1
1
1.00001
1.00005
1.0004
1.0034
1.02782
1.1797
1.79075
2.76229
2.2144
2.13032
2.04368
2.02112
1.99383
1.95175
1
1
1
1
1
1
1
1
1
1
1
1
1.00006
1.00005
1.00137
1.01157
1.09147
1.51687
2.62001
2.35738
2.11388
2.0266
2.00296
1.97466
1.9372
1
1
1
1
1
1
1
1
1
1
1
1
1.00001
1.00008
1.00063
1.00517
1.04041
1.24119
2.14479
2.59572
2.12621
2.07127
2.00997
1.96882
1.92542
1
1
1
1
1
1
1
1
1
1
1
1
1.00001
1.00006
1.00023
1.00196
1.00764
1.08729
1.65553
2.68834
2.25614
2.08642
1.99846
1.96009
1.91849
1
1
1
1
1
1
1
1
1
1
1
1
1
1.00001
1.00011
1.00087
1.00687
1.05333
1.30429
2.48492
2.458
2.10076
2.01677
1.95957
1.91545
1
1
1
1
1
1
1
1
1
1
1
1
1
1.00001
1.0001
1.0001
1.00172
1.01329
1.11225
1.78563
2.69992
2.216
2.05604
1.9561
1.91508
1
1
1
1
1
1
1
1
1
1
1
1
1
1
1.00002
1.00012
1.00099
1.0077
1.05915
1.32841
2.49389
2.41283
2.06534
1.97986
1.92267
1
1
1
1
1
1
1
1
1
1
1
1
1
1
1.00001
1.00009
1.00005
1.00178
1.0135
1.10733
1.78669
2.66853
2.19649
2.02278
1.92649
1
1
1
1
1
1
1
1
1
1
1
1
1
1
1
1.00002
1.00012
1.00098
1.00731
1.05646
1.32756
2.4558
2.39563
2.04072
1.97405
1
1
1
1
1
1
1
1
1
1
1
1
1
1
1
1.00001
1.00005
0.999944
1.00142
1.01311
1.10379
1.71647
2.60979
2.1973
1.99953
1
1
1
1
1
1
1
1
1
1
1
1
1
1
1
1
1.00001
1.00009
1.00078
1.0061
1.0481
1.29449
2.33444
2.40936
2.04782
1
1
1
1
1
1
1
1
1
1
1
1
1
1
1
1
1
1
0.99989
1.00093
1.01131
1.09558
1.59701
2.53211
2.26296
1
1
1
1
1
1
1
1
1
1
1
1
1
1
1
1
1
1.00001
1.00009
1.00072
1.00565
1.04317
1.27015
2.21754
2.47072
1
1
1
1
1
1
1
1
1
1
1
1
1
1
1
1
1
1
1.00002
1.00012
1.00113
1.00857
1.0712
1.38281
2.2955
1
1
1
1
1
1
1
1
1
1
1
1
1
1
1
1
1
1
1.00001
1.00004
1.00028
1.00339
1.00293
1.07466
1.72512
1
1
1
1
1
1
1
1
1
1
1
1
1
1
1
1
1
1
1
1.00002
0.999987
1.00049
1.00569
1.04377
1.28273
1
1
1
1
1
1
1
1
1
1
1
1
1
1
1
1
1
1
1
1
1.00003
1.00016
1.00126
1.00762
1.07237
1
1
1
1
1
1
1
1
1
1
1
1
1
1
1
1
1
1
1
1
1.00001
1.00006
1.00044
1.00297
1.02033
1
1
1
1
1
1
1
1
1
1
1
1
1
1
1
1
1
1
1
1
1
1.00002
1.0001
1.00073
1.00549
1
1
1
1
1
1
1
1
1
1
1
1
1
1
1
1
1
1
1
1
1
1
1.00002
1.00017
1.00125
1
1
1
1
1
1
1
1
1
1
1
1
1
1
1
1
1
1
1
1
1
1
1.00001
1.00004
1.00033
1
1
1
1
1
1
1
1
1
1
1
1
1
1
1
1
1
1
1
1
1
1
1
1.00001
0.999966
1
1
1
1
1
1
1
1
1
1
1
1
1
1
1
1
1
1
1
1
1
1
1
1
1.00002
1
1
1
1
1
1
1
1
1
1
1
1
1
1
1
1
1
1
1
1
1
1
1
1
1
1
1
1
1
1
1
1
1
1
1
1
1
1
1
1
1
1
1
1
1
1
1
1
1
1
1
1
1
1
1
1
1
1
1
1
1
1
1
1
1
1
1
1
1
1
1
1
1
1
1
1
1
1
1
1
1
1
1
1
1
1
1
1
1
1
1
1
1
1
1
1
1
1
1
1
1
1
1
1
1
1
1
1
1
1
1
1
1
1
1
1
1
1
1
1
1
1
1
1
1
1
1
1
1
1
1
1
1
1
1
1
1
1
1
1
1
1
1
1
1
1
1
1
1
1
1
1
1
1
1
1
1
1
1
1
1
1
1
1
1
1
1
1
1
1
1
1
1
1
1
1.98066
2.23457
2.79233
2.74448
2.71853
2.77075
2.81414
2.82097
2.61042
2.53381
2.52237
2.52924
2.53452
2.54486
2.56523
2.49853
2.4323
2.39863
2.39017
2.38507
2.39667
2.40022
2.40055
2.40125
2.40072
2.39826
2.39082
2.38429
2.37979
2.37731
2.37551
2.36899
2.3682
2.36867
2.37787
2.41819
2.45372
2.48672
2.51902
2.57109
2.60777
2.63841
2.67966
2.71567
2.7508
2.78091
2.78728
2.78813
2.80521
2.80625
2.84742
2.82947
2.81861
2.80448
2.78943
2.77706
2.76338
2.74861
2.73367
2.71981
2.70578
2.69201
2.67885
2.66551
2.65281
2.63999
2.62762
2.6157
2.60407
2.59286
2.58158
2.57043
2.55922
2.54891
2.53863
2.52905
2.51941
2.51005
2.50065
2.49154
2.48243
2.47376
2.4651
2.45701
2.44884
2.44116
2.43335
2.42612
2.41879
2.41214
2.40541
2.39944
2.39332
2.38781
2.38206
2.37608
2.36993
2.3598
2.35988
2.36577
2.02517
2.19015
2.38409
2.62137
2.71044
2.82953
2.94138
3.10433
2.88953
2.81414
2.80464
2.85956
2.87531
2.9011
2.91501
2.84217
2.79949
2.77488
2.77686
2.77783
2.78192
2.78549
2.78565
2.78735
2.78638
2.78904
2.78447
2.78013
2.77157
2.76834
2.7672
2.75964
2.76312
2.76641
2.76601
2.79857
2.8218
2.84265
2.87431
2.90005
2.91701
2.92281
2.91853
2.92509
2.9453
2.91406
2.88731
2.88153
2.8563
2.83292
2.80147
2.75892
2.72476
2.69162
2.65641
2.62884
2.60105
2.57383
2.54457
2.52215
2.50246
2.48204
2.46345
2.44723
2.43257
2.4181
2.4033
2.38873
2.37561
2.36376
2.35211
2.34043
2.32859
2.31735
2.30605
2.2958
2.28574
2.27635
2.26702
2.25795
2.2489
2.24017
2.23136
2.22343
2.21565
2.2085
2.20137
2.19449
2.18758
2.18074
2.17376
2.16713
2.16038
2.15411
2.14779
2.14181
2.13574
2.12608
2.12611
2.13255
1.83588
1.98559
2.14005
2.38508
2.51912
2.63325
2.69737
2.8441
2.9934
3.01258
3.04665
3.0307
2.99624
3.01216
3.07306
3.13236
3.03281
2.98402
2.97815
2.96993
2.99852
3.01093
3.0143
3.01421
3.01363
3.00751
3.00279
2.99744
2.99487
2.99629
2.997
2.98855
2.98822
2.9898
2.98803
3.01358
3.03031
3.03894
3.08591
3.10121
3.07893
3.0476
3.00067
2.94055
2.86467
2.75588
2.68744
2.63153
2.58019
2.53336
2.4897
2.45124
2.415
2.38838
2.3592
2.33923
2.3194
2.30087
2.27965
2.2591
2.24348
2.22952
2.21599
2.20272
2.19038
2.17942
2.16915
2.15878
2.14851
2.1394
2.13048
2.12169
2.11299
2.1044
2.09571
2.08737
2.07896
2.07111
2.06337
2.05599
2.04865
2.04171
2.0348
2.02831
2.02178
2.0155
2.00918
2.00323
1.99727
1.99171
1.98609
1.98103
1.97605
1.97095
1.96568
1.96022
1.95427
1.9458
1.94204
1.94691
1.71487
1.77716
1.86603
2.0316
2.22646
2.39573
2.42984
2.49836
2.63621
2.78971
2.87453
2.94924
2.96009
2.94314
2.93697
3.01563
3.0408
3.05444
3.06939
3.06912
3.06474
3.04826
2.99656
2.99825
3.00722
3.00896
3.01132
3.02001
3.01364
3.01104
3.00935
3.00101
3.01915
3.04685
3.07649
3.12272
3.12635
3.11502
3.05309
2.95025
2.79042
2.6708
2.59636
2.52809
2.46506
2.40229
2.35593
2.30736
2.28597
2.24952
2.23336
2.21443
2.1984
2.18222
2.16197
2.15054
2.13854
2.1274
2.11468
2.09832
2.08768
2.07769
2.06708
2.05721
2.04739
2.03838
2.02968
2.02091
2.01203
2.00464
1.99773
1.99079
1.98377
1.97673
1.96966
1.96247
1.95507
1.94773
1.94074
1.93422
1.92813
1.92229
1.91643
1.91066
1.90506
1.89962
1.89433
1.88919
1.8841
1.87891
1.87362
1.86845
1.86388
1.85927
1.85467
1.85002
1.84498
1.8382
1.83403
1.83932
1.74252
1.71725
1.74774
1.8289
1.93388
2.07029
2.15092
2.13325
2.23228
2.37607
2.5126
2.64271
2.75266
2.78203
2.78455
2.79814
2.84139
2.89474
2.93851
2.98303
3.00756
3.01072
3.00756
3.0027
2.99654
2.99618
2.99508
3.00384
3.00739
3.00471
2.99345
3.00168
3.0197
3.05152
3.05117
3.00252
2.91191
2.77893
2.62909
2.51129
2.38004
2.33164
2.28875
2.23972
2.19781
2.1639
2.12195
2.0984
2.0999
2.08678
2.08422
2.07607
2.06423
2.05114
2.04176
2.03604
2.02949
2.02137
2.01314
2.00209
1.99262
1.98586
1.97786
1.96887
1.95943
1.95087
1.94308
1.93519
1.9279
1.92128
1.91494
1.90864
1.90246
1.89636
1.89021
1.88391
1.87737
1.8706
1.86393
1.8577
1.85164
1.84572
1.84005
1.83481
1.82981
1.82495
1.8202
1.8156
1.81098
1.80625
1.80145
1.79659
1.79234
1.78806
1.78373
1.77936
1.77464
1.76856
1.76392
1.76952
1.80912
1.72378
1.71779
1.75292
1.80029
1.86224
1.93205
1.90271
1.9783
2.09934
2.2054
2.30147
2.40979
2.48414
2.50514
2.5369
2.59116
2.65654
2.71016
2.77947
2.81623
2.85652
2.88732
2.91358
2.92767
2.94229
2.95039
2.95471
2.96038
2.96485
2.97094
2.98855
2.97491
2.93785
2.85824
2.72634
2.55963
2.38127
2.25286
2.17328
2.09222
2.06972
2.06133
2.04397
2.02602
2.0062
1.9895
1.98862
1.97649
1.97613
1.99004
1.99013
1.98207
1.97055
1.96645
1.96025
1.95309
1.94827
1.94535
1.94091
1.9318
1.92309
1.91421
1.90624
1.89896
1.89262
1.88691
1.88091
1.87424
1.86722
1.86103
1.85535
1.84976
1.84407
1.8382
1.83201
1.8255
1.81888
1.8125
1.80658
1.80123
1.79609
1.79098
1.78583
1.78057
1.77515
1.76964
1.7647
1.76038
1.75609
1.75185
1.74761
1.74383
1.73996
1.73589
1.73163
1.72693
1.72114
1.71557
1.72109
1.88445
1.76568
1.72076
1.71863
1.7342
1.75137
1.77942
1.74957
1.7538
1.80908
1.89573
1.9718
2.04563
2.12061
2.17312
2.21195
2.26964
2.3336
2.40288
2.46698
2.53566
2.59109
2.64348
2.69674
2.73235
2.7719
2.80206
2.8364
2.85883
2.87616
2.9022
2.88916
2.84943
2.75792
2.59164
2.3526
2.17021
2.03732
1.94206
1.89703
1.85325
1.85318
1.86386
1.87062
1.88927
1.92376
1.9601
1.93573
1.91105
1.91392
1.91114
1.91115
1.91843
1.91925
1.91389
1.90983
1.90623
1.89986
1.89889
1.89618
1.88977
1.88152
1.87254
1.86728
1.86331
1.85842
1.85285
1.84659
1.83941
1.83346
1.82861
1.82367
1.81839
1.81262
1.80646
1.80008
1.79368
1.78744
1.78142
1.77587
1.77047
1.76505
1.75958
1.75401
1.74832
1.74297
1.73807
1.73362
1.72943
1.72517
1.72086
1.71646
1.71245
1.70842
1.7042
1.69984
1.69511
1.68936
1.6835
1.68905
1.91627
1.82726
1.75249
1.72429
1.72686
1.72093
1.71285
1.69131
1.66258
1.67301
1.7197
1.78095
1.83613
1.88842
1.94173
1.94535
1.95676
1.99504
2.05669
2.11622
2.18705
2.26361
2.31671
2.37164
2.42653
2.49303
2.54383
2.60698
2.64049
2.6789
2.79866
2.72484
2.60684
2.43619
2.22289
2.00552
1.89695
1.82375
1.76179
1.73017
1.69663
1.69797
1.69975
1.7053
1.72607
1.76361
1.80696
1.86032
1.92547
1.90019
1.85717
1.86002
1.86314
1.87112
1.88351
1.88677
1.87996
1.87324
1.86661
1.86233
1.86101
1.85864
1.8557
1.85001
1.84321
1.83593
1.82869
1.82358
1.81891
1.81425
1.80943
1.80446
1.7992
1.79351
1.7874
1.78108
1.77469
1.76888
1.76313
1.75732
1.75145
1.74558
1.74
1.73458
1.72928
1.72411
1.71905
1.71421
1.70971
1.70521
1.70072
1.69622
1.69206
1.68788
1.68352
1.679
1.67409
1.66816
1.6619
1.66732
1.91624
1.86028
1.7988
1.7606
1.73332
1.72154
1.70672
1.68019
1.64546
1.61201
1.61913
1.64753
1.68476
1.71301
1.73685
1.76515
1.75802
1.77752
1.81755
1.87124
1.9161
1.96916
2.01055
2.05569
2.1009
2.1526
2.21069
2.27782
2.34279
2.49077
2.55457
2.45889
2.31531
2.13791
1.93254
1.80299
1.73603
1.70555
1.66907
1.64341
1.61802
1.60157
1.59328
1.59312
1.60744
1.62975
1.66028
1.70819
1.76785
1.8496
1.91003
1.88256
1.84911
1.83746
1.83953
1.85159
1.86044
1.85451
1.85121
1.8462
1.84641
1.84573
1.84315
1.83775
1.82825
1.81953
1.81538
1.81114
1.80655
1.80148
1.7958
1.78972
1.78405
1.77857
1.77292
1.76687
1.76024
1.75395
1.74834
1.74272
1.73705
1.73134
1.72577
1.72028
1.71482
1.70935
1.70409
1.6993
1.69485
1.6904
1.68593
1.68143
1.67691
1.67236
1.66773
1.66301
1.65804
1.65216
1.64596
1.65153
1.90734
1.86283
1.81267
1.78846
1.75073
1.73454
1.71211
1.68175
1.64606
1.61267
1.58518
1.59247
1.60625
1.62191
1.63388
1.64817
1.64698
1.64454
1.65172
1.67849
1.71828
1.75184
1.78659
1.81643
1.84874
1.88315
1.92491
1.99267
2.0944
2.35349
2.29863
2.19547
2.07625
1.92865
1.77927
1.71759
1.67386
1.63734
1.60965
1.58797
1.56813
1.55457
1.54298
1.5353
1.53905
1.54403
1.5599
1.58739
1.62896
1.69605
1.77776
1.90308
1.88884
1.83284
1.83122
1.82874
1.82646
1.8384
1.83796
1.83435
1.83145
1.82852
1.82364
1.81883
1.81337
1.80619
1.80143
1.79778
1.79313
1.78723
1.78196
1.77697
1.77179
1.76596
1.7593
1.75225
1.74592
1.74055
1.73568
1.7308
1.7258
1.72063
1.71537
1.71007
1.7048
1.69956
1.69448
1.68954
1.68461
1.67962
1.67465
1.66973
1.66505
1.66065
1.65626
1.65184
1.64718
1.64158
1.63566
1.64148
1.89691
1.86009
1.82185
1.79656
1.77059
1.75188
1.72526
1.69414
1.65815
1.61931
1.58976
1.5738
1.57876
1.58878
1.59305
1.6
1.59883
1.59293
1.58089
1.58471
1.60457
1.6332
1.65352
1.67383
1.69556
1.72074
1.76646
1.83856
1.99575
2.24972
2.1316
2.04394
1.93857
1.80653
1.73166
1.68551
1.64479
1.6026
1.58058
1.55707
1.53785
1.52241
1.51646
1.513
1.50594
1.50151
1.50751
1.51805
1.53951
1.57673
1.62724
1.69857
1.79316
1.90501
1.86922
1.83222
1.79728
1.80531
1.80669
1.8185
1.81391
1.81125
1.80669
1.79945
1.79657
1.7946
1.79124
1.78603
1.78019
1.77331
1.76875
1.76393
1.75873
1.75292
1.74673
1.74003
1.73518
1.73076
1.72623
1.72157
1.71686
1.71217
1.7075
1.70278
1.69801
1.69315
1.6882
1.68324
1.67835
1.67344
1.66852
1.66366
1.65882
1.65416
1.64956
1.64497
1.64015
1.63443
1.62833
1.63428
1.88742
1.85232
1.81735
1.79265
1.77868
1.7593
1.73947
1.71301
1.67777
1.63841
1.60602
1.57147
1.56811
1.57088
1.57715
1.57568
1.57106
1.5604
1.54685
1.53818
1.54381
1.55596
1.56861
1.58476
1.60314
1.63311
1.68337
1.79504
2.02635
2.11463
2.02554
1.96221
1.87485
1.78157
1.73665
1.69197
1.64943
1.61105
1.58087
1.55391
1.53469
1.51631
1.5013
1.48702
1.48748
1.48561
1.48931
1.49078
1.4945
1.503
1.5203
1.5607
1.62462
1.71241
1.86406
1.86998
1.81673
1.80714
1.78837
1.79061
1.79364
1.79333
1.79244
1.78962
1.78521
1.78076
1.77651
1.77172
1.76648
1.7603
1.75362
1.74964
1.74537
1.74075
1.73573
1.73029
1.72455
1.71961
1.71482
1.71007
1.70533
1.70064
1.69599
1.69126
1.68642
1.68142
1.67633
1.67155
1.6671
1.66271
1.65832
1.65393
1.64952
1.64506
1.64052
1.63586
1.63085
1.62486
1.61833
1.62436
1.87789
1.8443
1.81155
1.78593
1.77565
1.76166
1.74645
1.72405
1.69453
1.6622
1.62853
1.58972
1.56689
1.56714
1.57019
1.56603
1.55937
1.55003
1.533
1.52673
1.52116
1.51661
1.5202
1.53324
1.55429
1.59549
1.68449
1.85323
2.13905
2.0219
1.96977
1.90717
1.83491
1.79373
1.75127
1.71242
1.67431
1.64285
1.61517
1.58884
1.56722
1.54734
1.52768
1.51083
1.49427
1.47569
1.47838
1.47726
1.47332
1.46964
1.47031
1.48494
1.51099
1.55855
1.63369
1.73007
1.87742
1.8487
1.80663
1.75818
1.75834
1.76192
1.76924
1.76893
1.76801
1.76391
1.75811
1.75206
1.74706
1.7424
1.73739
1.73234
1.72716
1.72178
1.71701
1.71221
1.70732
1.70219
1.69811
1.69414
1.68993
1.68534
1.68031
1.67485
1.66907
1.66327
1.65815
1.65359
1.64962
1.64594
1.64238
1.63881
1.63516
1.63133
1.6272
1.62269
1.61755
1.61125
1.60409
1.61018
1.8744
1.84099
1.8086
1.77615
1.76665
1.75779
1.74477
1.72592
1.70404
1.67774
1.6477
1.6188
1.58218
1.57091
1.5704
1.56789
1.55993
1.54689
1.53781
1.52926
1.51667
1.49322
1.50418
1.51732
1.54624
1.61825
1.76335
2.07723
2.04946
1.96759
1.91459
1.87248
1.83728
1.8038
1.76736
1.73004
1.69894
1.67003
1.64145
1.61674
1.59507
1.57284
1.55255
1.53189
1.51086
1.49952
1.48439
1.46597
1.45488
1.45488
1.45499
1.45348
1.45387
1.46695
1.50189
1.55978
1.6496
1.77744
1.8529
1.80209
1.78161
1.74228
1.74797
1.75186
1.75666
1.75659
1.75432
1.74918
1.7388
1.73511
1.73083
1.72574
1.71934
1.71209
1.70512
1.70156
1.69793
1.69399
1.68991
1.68593
1.6819
1.67768
1.67309
1.66818
1.66331
1.65849
1.65345
1.6488
1.64476
1.64066
1.63649
1.63225
1.62793
1.62351
1.61892
1.61408
1.60875
1.60232
1.59496
1.60131
1.86997
1.83822
1.80886
1.77414
1.7594
1.75141
1.73869
1.72377
1.70522
1.6834
1.66076
1.63877
1.60747
1.58541
1.57964
1.57315
1.55903
1.55137
1.5433
1.5321
1.50648
1.50209
1.51393
1.5309
1.58087
1.70208
1.97263
2.02646
1.93901
1.92416
1.90042
1.87349
1.84439
1.81399
1.78213
1.75011
1.72128
1.69213
1.66594
1.64193
1.61954
1.59702
1.57567
1.55477
1.53699
1.51802
1.49816
1.47883
1.46836
1.45296
1.44188
1.43276
1.43078
1.4333
1.44088
1.46079
1.50865
1.58281
1.68291
1.84611
1.83028
1.77851
1.7571
1.7288
1.73477
1.73473
1.73636
1.73569
1.73353
1.72406
1.71872
1.71559
1.71158
1.70694
1.70175
1.69649
1.69145
1.68722
1.6831
1.679
1.67485
1.67045
1.66574
1.66112
1.65684
1.65255
1.6481
1.64343
1.63872
1.63432
1.62986
1.62536
1.62087
1.61635
1.61172
1.60689
1.60157
1.59514
1.58753
1.59408
1.87105
1.83852
1.81047
1.77575
1.75462
1.74881
1.73638
1.72027
1.70263
1.68462
1.66516
1.64387
1.62035
1.59065
1.58461
1.57943
1.56785
1.55646
1.5452
1.53253
1.51704
1.5228
1.53251
1.56846
1.66783
1.8395
2.01683
1.94792
1.91207
1.8991
1.88446
1.86798
1.84818
1.82479
1.79844
1.77015
1.74157
1.71337
1.688
1.66316
1.64034
1.61669
1.59459
1.57555
1.55575
1.53076
1.51338
1.50115
1.48374
1.46511
1.44959
1.43556
1.4243
1.42177
1.42441
1.42338
1.43544
1.46847
1.52796
1.61393
1.71972
1.8394
1.80443
1.76894
1.70896
1.71103
1.71739
1.72276
1.72225
1.72093
1.71552
1.70564
1.70137
1.6975
1.69413
1.69067
1.68685
1.68205
1.67787
1.67353
1.6692
1.66482
1.66043
1.65597
1.65137
1.64662
1.64144
1.63672
1.63254
1.62828
1.62391
1.61941
1.61478
1.61003
1.60514
1.59999
1.59439
1.58771
1.57973
1.58661
1.8754
1.84085
1.81215
1.77901
1.75075
1.74669
1.73746
1.7193
1.70187
1.68495
1.66703
1.64732
1.62686
1.60062
1.58205
1.57869
1.57396
1.56026
1.53951
1.53455
1.54123
1.54682
1.56938
1.64993
1.80908
2.02983
1.9673
1.90897
1.89716
1.88614
1.87758
1.8672
1.85208
1.83194
1.80811
1.78331
1.75762
1.73158
1.70674
1.68264
1.65845
1.6328
1.61293
1.59213
1.56877
1.54515
1.53276
1.51517
1.49466
1.48145
1.47009
1.4558
1.43992
1.42187
1.41428
1.4065
1.41213
1.41944
1.44068
1.48467
1.55217
1.64235
1.79336
1.79988
1.74447
1.73607
1.69404
1.6967
1.70589
1.71094
1.70907
1.70519
1.6982
1.68909
1.68654
1.68375
1.68005
1.67534
1.66878
1.6656
1.66291
1.65984
1.65633
1.65224
1.64745
1.64219
1.63604
1.63039
1.62624
1.62192
1.61745
1.61288
1.60822
1.6034
1.59839
1.59318
1.58763
1.58106
1.57293
1.5801
1.8874
1.84849
1.81716
1.78594
1.74986
1.74432
1.73903
1.72178
1.70189
1.68683
1.66963
1.64997
1.62813
1.60146
1.5808
1.57773
1.57155
1.55755
1.54274
1.5479
1.55719
1.57974
1.64708
1.78944
2.03756
1.97502
1.91252
1.88604
1.88037
1.87659
1.87156
1.86305
1.84975
1.83231
1.81172
1.78949
1.76623
1.74132
1.71834
1.69536
1.67066
1.64809
1.62824
1.60479
1.57819
1.56484
1.54731
1.5277
1.51154
1.49853
1.48514
1.47008
1.45312
1.43753
1.42174
1.40422
1.39719
1.40527
1.41186
1.4255
1.44785
1.49381
1.56732
1.66436
1.81082
1.77874
1.73933
1.69825
1.67727
1.68578
1.6894
1.69459
1.69284
1.68784
1.67823
1.67198
1.67034
1.66779
1.66414
1.66056
1.65768
1.65493
1.65183
1.64792
1.64279
1.63689
1.63059
1.62342
1.61855
1.61421
1.60985
1.60546
1.60097
1.59628
1.59133
1.5861
1.58052
1.57395
1.56566
1.57309
1.90388
1.86186
1.81964
1.78956
1.7536
1.74048
1.74046
1.72694
1.70461
1.68631
1.67389
1.65629
1.63362
1.60488
1.57582
1.57456
1.56646
1.55401
1.55483
1.56334
1.58285
1.64428
1.77367
2.02652
1.98543
1.92937
1.88541
1.87687
1.87439
1.87004
1.86402
1.85556
1.84431
1.83015
1.81318
1.79277
1.77066
1.74722
1.7242
1.70069
1.67725
1.65823
1.63666
1.61339
1.59425
1.57609
1.55514
1.54153
1.52543
1.50877
1.4933
1.47873
1.46374
1.44746
1.42779
1.41821
1.40528
1.40232
1.40107
1.40162
1.40078
1.41525
1.44959
1.50946
1.59553
1.69235
1.77121
1.72465
1.70904
1.67098
1.6736
1.68394
1.68467
1.68382
1.67888
1.67232
1.66409
1.659
1.658
1.65665
1.65465
1.65205
1.64885
1.64422
1.63809
1.63107
1.6239
1.61619
1.61022
1.60606
1.60188
1.59764
1.59328
1.5887
1.58383
1.57866
1.57315
1.56657
1.55794
1.56546
1.91393
1.87745
1.83485
1.79676
1.76072
1.73246
1.73511
1.72975
1.70966
1.68482
1.673
1.66009
1.64021
1.61368
1.58058
1.56992
1.55293
1.56055
1.57012
1.58335
1.63666
1.75514
2.006
2.00018
1.94864
1.90265
1.88168
1.8748
1.8681
1.86111
1.85342
1.84446
1.83385
1.82093
1.80595
1.78885
1.77019
1.75032
1.7289
1.70587
1.68521
1.6634
1.63854
1.62278
1.60495
1.58418
1.56765
1.55181
1.53511
1.5173
1.50231
1.48648
1.47107
1.45591
1.44055
1.42694
1.41685
1.40496
1.39179
1.3842
1.38743
1.39517
1.4022
1.41882
1.45227
1.5179
1.60971
1.75562
1.75174
1.71031
1.69828
1.66559
1.66857
1.67766
1.67744
1.67431
1.66873
1.66045
1.65055
1.64926
1.64778
1.64531
1.64207
1.63734
1.63166
1.62537
1.61834
1.60997
1.60389
1.59958
1.59513
1.59061
1.58601
1.58125
1.57632
1.57113
1.56558
1.55904
1.55008
1.55778
1.97283
1.8862
1.84757
1.80646
1.77258
1.73428
1.7274
1.72713
1.71211
1.68774
1.67099
1.66079
1.64609
1.62383
1.59391
1.56948
1.56334
1.57239
1.5885
1.63573
1.74073
1.96392
1.99913
1.93841
1.91343
1.88938
1.87458
1.86097
1.85305
1.84595
1.83837
1.83029
1.82149
1.8113
1.79941
1.78539
1.76961
1.75213
1.73372
1.71412
1.69425
1.67291
1.65184
1.63347
1.61372
1.59525
1.57752
1.56166
1.54529
1.52999
1.51387
1.50033
1.48633
1.47203
1.45765
1.44391
1.43379
1.42421
1.41434
1.40478
1.3927
1.39045
1.3862
1.38117
1.38586
1.41257
1.46107
1.54512
1.63829
1.76576
1.73164
1.70037
1.66404
1.64583
1.64955
1.65921
1.65929
1.65668
1.65095
1.64248
1.63874
1.63658
1.63353
1.62997
1.62551
1.61942
1.61189
1.60244
1.5965
1.59234
1.58799
1.58336
1.57849
1.57331
1.56804
1.56254
1.55681
1.55024
1.54151
1.54967
1.98847
1.91383
1.85647
1.82137
1.78525
1.74472
1.72087
1.72267
1.71222
1.69058
1.66884
1.66056
1.64905
1.63031
1.60275
1.57885
1.58972
1.60174
1.63533
1.73512
1.93239
2.00073
1.92991
1.91715
1.90193
1.88564
1.86716
1.85399
1.84283
1.83396
1.82781
1.82131
1.81367
1.80477
1.79439
1.7823
1.76858
1.75344
1.73714
1.71981
1.7013
1.68229
1.66281
1.6429
1.6246
1.60624
1.58921
1.57259
1.55751
1.54242
1.52712
1.51199
1.49665
1.48256
1.46831
1.45232
1.44254
1.43382
1.42443
1.41349
1.40173
1.38947
1.37453
1.37554
1.36653
1.36874
1.37783
1.41253
1.48028
1.57681
1.73879
1.74015
1.6905
1.6777
1.63792
1.63832
1.64411
1.64764
1.64632
1.64047
1.63534
1.63126
1.62824
1.62431
1.61928
1.61243
1.60421
1.59463
1.58717
1.58382
1.58034
1.5763
1.57175
1.56643
1.56093
1.5554
1.54959
1.54298
1.53422
1.54244
2.09665
1.98048
1.8681
1.82006
1.78443
1.75205
1.71657
1.71427
1.71163
1.69413
1.67121
1.65969
1.65241
1.63779
1.60752
1.60528
1.62245
1.6563
1.74392
1.90378
2.01319
1.93221
1.92338
1.90982
1.89545
1.88194
1.86834
1.85465
1.84048
1.82767
1.8202
1.81385
1.80661
1.79844
1.78929
1.77889
1.76726
1.75409
1.73979
1.72411
1.70774
1.6902
1.67211
1.65316
1.63497
1.61677
1.59972
1.58261
1.56778
1.5532
1.53842
1.52295
1.50677
1.49029
1.47289
1.45673
1.44733
1.43787
1.42722
1.41549
1.40346
1.39295
1.38308
1.37143
1.35761
1.35074
1.34625
1.35786
1.39011
1.44552
1.51881
1.60721
1.75228
1.7205
1.67889
1.65263
1.62286
1.62482
1.63277
1.63237
1.62995
1.62717
1.62344
1.61807
1.61206
1.60439
1.59454
1.58666
1.58076
1.5764
1.57265
1.56866
1.56428
1.55911
1.55344
1.54797
1.54213
1.5352
1.52619
1.53443
2.19052
1.91989
1.88541
1.82582
1.79091
1.75971
1.72622
1.70705
1.70993
1.69932
1.67872
1.66218
1.65651
1.64463
1.62896
1.63772
1.66537
1.75386
1.90411
2.04325
1.95503
1.94171
1.92096
1.89776
1.89228
1.88486
1.87447
1.86048
1.84359
1.82695
1.81585
1.80825
1.80079
1.79274
1.78403
1.77459
1.76411
1.75262
1.74002
1.72642
1.71178
1.69608
1.6795
1.6622
1.6443
1.62696
1.61026
1.5944
1.57835
1.5635
1.54833
1.53325
1.51803
1.50212
1.4848
1.47365
1.46253
1.45182
1.44087
1.42963
1.41722
1.40801
1.39665
1.38305
1.36894
1.34609
1.34629
1.34977
1.35468
1.37343
1.40368
1.46034
1.54714
1.6625
1.71442
1.6729
1.65551
1.62756
1.61071
1.61337
1.62132
1.62028
1.61672
1.61237
1.60617
1.59818
1.58595
1.57828
1.57417
1.56938
1.5658
1.56213
1.55785
1.55213
1.546
1.54099
1.53543
1.52805
1.51833
1.52622
2.47967
2.11784
1.90759
1.84734
1.80655
1.78403
1.75604
1.71939
1.71723
1.7125
1.69449
1.67092
1.6654
1.66114
1.66489
1.68525
1.76091
1.9053
2.06426
1.97839
1.96805
1.94242
1.90908
1.90156
1.89325
1.88437
1.87324
1.85995
1.84556
1.83089
1.81592
1.8043
1.79559
1.78749
1.77896
1.77002
1.76064
1.75061
1.73991
1.72809
1.71507
1.70082
1.6855
1.6693
1.65248
1.63536
1.61903
1.60294
1.58729
1.57175
1.55614
1.54036
1.52471
1.50817
1.49434
1.48019
1.46647
1.45658
1.44614
1.43561
1.42442
1.41182
1.39789
1.38569
1.3733
1.3597
1.34082
1.341
1.34149
1.34546
1.35245
1.37691
1.41424
1.48129
1.56777
1.71663
1.69853
1.65478
1.63226
1.59599
1.59657
1.59989
1.6035
1.60188
1.59822
1.59048
1.58009
1.5687
1.56568
1.56226
1.55815
1.55475
1.55046
1.54468
1.5369
1.53251
1.52712
1.51999
1.5094
1.51696
2.2191
2.32114
2.00218
1.90322
1.81839
1.79179
1.76389
1.73441
1.7163
1.71701
1.70325
1.67533
1.67651
1.68889
1.71399
1.78794
1.92321
2.08116
1.99088
1.98613
1.96311
1.92989
1.92097
1.90951
1.89746
1.88489
1.87185
1.8604
1.84814
1.8347
1.82078
1.80671
1.79494
1.78532
1.77648
1.76739
1.75801
1.74815
1.73778
1.72668
1.7146
1.70143
1.68712
1.67202
1.6564
1.64055
1.62491
1.60948
1.59434
1.57912
1.56366
1.54774
1.53122
1.51443
1.49788
1.48238
1.46946
1.45935
1.44834
1.43745
1.42601
1.41409
1.4018
1.38887
1.37596
1.3613
1.35263
1.34393
1.33493
1.33594
1.33983
1.34119
1.35104
1.38265
1.43979
1.51464
1.61701
1.68674
1.64632
1.62542
1.60214
1.57688
1.57712
1.58203
1.58194
1.57982
1.57312
1.56343
1.55392
1.55098
1.54778
1.54452
1.54034
1.53496
1.52688
1.52158
1.5164
1.51007
1.49959
1.5066
1.48718
2.29492
2.16122
1.90221
1.85797
1.80016
1.77296
1.74652
1.71773
1.70974
1.70906
1.69605
1.70177
1.72645
1.81168
1.95919
2.12194
2.02003
2.00748
1.9803
1.94424
1.93912
1.92918
1.91678
1.90281
1.88763
1.8758
1.86373
1.85109
1.83793
1.8243
1.81059
1.79686
1.78461
1.77293
1.76249
1.75272
1.7429
1.73272
1.72217
1.71106
1.6992
1.6866
1.67323
1.65938
1.64493
1.6303
1.61536
1.60033
1.58507
1.56951
1.55349
1.53685
1.51987
1.50257
1.48829
1.47711
1.46584
1.45463
1.44281
1.43072
1.4203
1.40862
1.39589
1.38213
1.36932
1.36104
1.35449
1.34742
1.33835
1.33408
1.33559
1.33526
1.33943
1.3628
1.40324
1.46229
1.54301
1.66876
1.65977
1.62119
1.60704
1.5788
1.5661
1.57047
1.57073
1.56787
1.56153
1.54978
1.54036
1.53772
1.53407
1.52957
1.52339
1.51539
1.50698
1.50255
1.49729
1.4879
1.49481
1.14574
1.71261
2.38958
2.08203
1.87848
1.8201
1.77993
1.75292
1.72254
1.69075
1.70371
1.72041
1.74672
1.82509
1.97956
2.16754
2.06162
2.04265
2.00672
1.96641
1.96048
1.95065
1.93872
1.9248
1.90912
1.89573
1.88213
1.86816
1.85402
1.83974
1.8253
1.81085
1.79656
1.78261
1.76922
1.75687
1.74662
1.73637
1.7258
1.71481
1.7035
1.6919
1.67981
1.66725
1.65434
1.64119
1.62783
1.61415
1.59991
1.58507
1.56972
1.55381
1.53717
1.51953
1.50461
1.49192
1.48069
1.46933
1.4581
1.44684
1.4354
1.42372
1.41227
1.4004
1.38792
1.37634
1.36999
1.36417
1.35712
1.34988
1.34211
1.33111
1.32611
1.32593
1.33309
1.34881
1.37683
1.4212
1.49065
1.58567
1.66895
1.64205
1.6111
1.58945
1.55937
1.55977
1.55887
1.55398
1.54595
1.53837
1.53359
1.52755
1.52036
1.51299
1.50622
1.50008
1.49445
1.4883
1.47863
1.48546
1.04526
1.28967
2.26156
2.28377
1.98335
1.87155
1.79926
1.7577
1.71585
1.70084
1.71813
1.75059
1.84558
2.00964
2.20799
2.09644
2.07144
2.02406
1.99238
1.98619
1.97465
1.96097
1.94502
1.92706
1.91263
1.89813
1.8834
1.86866
1.8539
1.83902
1.82403
1.80897
1.79398
1.77918
1.76472
1.75057
1.73773
1.72685
1.71597
1.70495
1.69368
1.68228
1.67068
1.65933
1.6482
1.63711
1.62581
1.61408
1.60168
1.58857
1.57471
1.56005
1.54431
1.52735
1.51265
1.50038
1.48927
1.47824
1.4672
1.45629
1.44508
1.4345
1.42351
1.41275
1.40218
1.39128
1.38379
1.3751
1.37037
1.36413
1.35664
1.349
1.34189
1.33286
1.33337
1.34108
1.34614
1.35909
1.39682
1.45734
1.53198
1.66445
1.6576
1.62198
1.60635
1.58367
1.5508
1.54936
1.54894
1.54438
1.53816
1.53118
1.52341
1.51417
1.50632
1.49975
1.49317
1.48569
1.47561
1.48209
1.0101
1.07595
1.39546
2.15856
2.07403
1.84658
1.79852
1.75523
1.72047
1.72732
1.75197
1.84369
2.02069
2.23811
2.12581
2.09085
2.02688
2.00402
2.0031
1.99439
1.98126
1.96383
1.94403
1.92505
1.90959
1.89424
1.87864
1.86268
1.8467
1.83108
1.81573
1.80059
1.78572
1.77093
1.75646
1.74224
1.72869
1.71825
1.70798
1.69732
1.68622
1.67482
1.66387
1.6542
1.64467
1.63494
1.62489
1.61432
1.60312
1.59116
1.57833
1.56447
1.54934
1.53297
1.51903
1.50731
1.49652
1.48568
1.4753
1.46484
1.45465
1.4444
1.43494
1.42568
1.41601
1.4077
1.39829
1.39307
1.38726
1.38193
1.37588
1.36978
1.36383
1.35809
1.35126
1.34507
1.34708
1.35259
1.36118
1.38803
1.43049
1.50597
1.59587
1.70064
1.67356
1.63169
1.60536
1.56481
1.55572
1.55492
1.55334
1.54721
1.53785
1.52762