/*--------------------------------*- C++ -*----------------------------------*\
| =========                 |                                                 |
| \\      /  F ield         | OpenFOAM: The Open Source CFD Toolbox           |
|  \\    /   O peration     | Version:  v2106                                 |
|   \\  /    A nd           | Website:  www.openfoam.com                      |
|    \\/     M anipulation  |                                                 |
\*---------------------------------------------------------------------------*/
FoamFile
{
    version     2.0;
    format      ascii;
    arch        "LSB;label=32;scalar=64";
    class       volVectorField;
    location    "18";
    object      U;
}
// * * * * * * * * * * * * * * * * * * * * * * * * * * * * * * * * * * * * * //

dimensions      [0 1 -1 0 0 0 0];

internalField   nonuniform List<vector> 
5250
(
(3 -4.47072e-15 0)
(3 5.92934e-15 0)
(3 6.96908e-14 0)
(3 3.53321e-13 0)
(3 5.51555e-12 0)
(3 2.90122e-11 0)
(3 4.33987e-10 0)
(3 2.47746e-09 0)
(3 3.3574e-08 0)
(3.00001 2.16888e-07 0)
(3.00008 2.53753e-06 0)
(3.00068 1.96999e-05 0)
(3.00683 0.00018836 0)
(3.06402 0.00193895 0)
(2.65658 0.0015628 0)
(1.10401 0.0406306 0)
(0.316672 0.0162183 0)
(0.537016 0.020473 0)
(0.448332 0.0208005 0)
(0.379894 0.0237267 0)
(0.329516 0.0247042 0)
(0.260902 0.026935 0)
(0.195668 0.0277556 0)
(0.120748 0.0305586 0)
(0.0455903 0.0374559 0)
(3 -1.12737e-14 0)
(3 1.4714e-14 0)
(3 2.21852e-13 0)
(3 8.12448e-13 0)
(3 1.79136e-11 0)
(3 6.55514e-11 0)
(3 1.41591e-09 0)
(3 5.90134e-09 0)
(3 1.09521e-07 0)
(3.00001 5.7461e-07 0)
(3.00007 8.35451e-06 0)
(3.00069 5.68154e-05 0)
(3.00638 0.000615735 0)
(3.06469 0.00615845 0)
(2.66728 0.00772773 0)
(1.12897 0.122213 0)
(0.304394 0.043093 0)
(0.533717 0.0567415 0)
(0.44087 0.0606483 0)
(0.373682 0.0654069 0)
(0.32508 0.0727313 0)
(0.25798 0.0789278 0)
(0.191446 0.0866133 0)
(0.115318 0.0930036 0)
(0.0396322 0.1007 0)
(3 -1.29099e-14 0)
(3 1.81253e-14 0)
(3 3.86401e-13 0)
(3 5.4017e-13 0)
(3 3.20384e-11 0)
(3 2.59391e-11 0)
(3 2.59347e-09 0)
(3 2.0655e-09 0)
(3 2.02066e-07 0)
(3.00001 3.53956e-07 0)
(3.00006 1.47724e-05 0)
(3.0007 6.81419e-05 0)
(3.00543 0.00107623 0)
(3.06612 0.0101754 0)
(2.69374 0.0144864 0)
(1.20557 0.208325 0)
(0.286741 0.0805015 0)
(0.532386 0.0967153 0)
(0.434491 0.103023 0)
(0.367989 0.10961 0)
(0.320215 0.119343 0)
(0.253288 0.13196 0)
(0.189346 0.143513 0)
(0.114002 0.154807 0)
(0.04007 0.16519 0)
(3 -1.35772e-14 0)
(3 2.27345e-14 0)
(3 6.02026e-13 0)
(3 -7.94599e-13 0)
(3 5.32904e-11 0)
(3 -1.9567e-10 0)
(3 4.26932e-09 0)
(3 -2.51667e-08 0)
(3 3.13927e-07 0)
(3.00001 -9.88987e-07 0)
(3.00005 2.30529e-05 0)
(3.00073 1.59017e-05 0)
(3.00413 0.00149874 0)
(3.06746 0.0134243 0)
(2.73121 0.0210212 0)
(1.3427 0.293047 0)
(0.276652 0.123669 0)
(0.539175 0.135444 0)
(0.437509 0.144685 0)
(0.367815 0.152229 0)
(0.319601 0.167269 0)
(0.255017 0.183967 0)
(0.193005 0.200973 0)
(0.117775 0.217001 0)
(0.0412841 0.229872 0)
(3 -3.0588e-14 0)
(3 4.18805e-14 0)
(3 6.05368e-13 0)
(3 3.9944e-13 0)
(3 5.91295e-11 0)
(3 -1.19517e-11 0)
(3 6.0629e-09 0)
(3 -3.92239e-08 0)
(3 5.33588e-07 0)
(3.00001 -9.80777e-06 0)
(3.00002 3.02977e-05 0)
(3.00082 -0.000225416 0)
(3.00265 0.00193708 0)
(3.06801 0.0157027 0)
(2.77694 0.0290721 0)
(1.51955 0.357549 0)
(0.28464 0.179356 0)
(0.553113 0.179963 0)
(0.452138 0.189744 0)
(0.373695 0.198976 0)
(0.328345 0.21187 0)
(0.263727 0.232442 0)
(0.199242 0.256643 0)
(0.12528 0.281104 0)
(0.0418007 0.298836 0)
(3 -3.16804e-14 0)
(3 -2.85426e-14 0)
(3 4.93278e-14 0)
(3 -1.11093e-11 0)
(3 1.13e-10 0)
(3 3.41675e-11 0)
(3 6.30739e-09 0)
(3 2.15929e-08 0)
(3 5.54047e-07 0)
(3 -4.8356e-07 0)
(3.00003 5.44351e-05 0)
(3.00056 -0.000884599 0)
(3.00124 0.00214566 0)
(3.06676 0.0167504 0)
(2.82795 0.0358071 0)
(1.75129 0.405409 0)
(0.316067 0.245546 0)
(0.573462 0.228115 0)
(0.47925 0.240489 0)
(0.388972 0.247506 0)
(0.342018 0.260762 0)
(0.27175 0.291374 0)
(0.211101 0.317452 0)
(0.130134 0.350362 0)
(0.0487832 0.372182 0)
(3 -4.13108e-14 0)
(3 1.11689e-13 0)
(3 -2.39161e-12 0)
(3 3.52917e-13 0)
(3 -9.98216e-11 0)
(3 -4.35227e-10 0)
(3 8.06118e-09 0)
(3 1.04249e-08 0)
(3 4.58017e-07 0)
(3.00001 1.73926e-06 0)
(3 2.77969e-05 0)
(3.00064 0.00018109 0)
(2.99993 0.00173806 0)
(3.06286 0.0148335 0)
(2.87927 0.0299578 0)
(2.05455 0.405047 0)
(0.398624 0.324502 0)
(0.612969 0.286136 0)
(0.532907 0.291089 0)
(0.422663 0.304956 0)
(0.373809 0.30916 0)
(0.30274 0.339173 0)
(0.24228 0.375884 0)
(0.140904 0.421844 0)
(0.0701571 0.454322 0)
(3 -1.33843e-14 0)
(3 1.67493e-13 0)
(3 7.32278e-13 0)
(3 1.24078e-11 0)
(3 -1.04334e-10 0)
(3 -1.01861e-10 0)
(3 4.96885e-09 0)
(3 5.96916e-09 0)
(3 2.72075e-07 0)
(3.00002 1.16702e-06 0)
(2.99993 1.84319e-05 0)
(3.00091 0.000125421 0)
(2.99902 0.00137439 0)
(3.05596 0.0130983 0)
(2.92227 0.0419859 0)
(2.19759 0.338524 0)
(0.498249 0.398604 0)
(0.651389 0.356093 0)
(0.586317 0.360278 0)
(0.476364 0.369262 0)
(0.416286 0.365689 0)
(0.327909 0.408834 0)
(0.25783 0.457499 0)
(0.171789 0.503631 0)
(0.0717004 0.558663 0)
(3 4.32587e-14 0)
(3 -4.56482e-13 0)
(3 -4.72142e-13 0)
(3 9.47581e-12 0)
(3 5.28427e-11 0)
(3 7.73259e-10 0)
(3 -1.06509e-08 0)
(3 -8.88503e-09 0)
(3 1.8456e-07 0)
(3.00002 1.41106e-06 0)
(2.99993 1.56195e-05 0)
(3.00082 0.000126544 0)
(2.99858 0.00126899 0)
(3.04689 0.0109525 0)
(2.96703 0.0556308 0)
(2.32318 0.284067 0)
(0.593059 0.44847 0)
(0.677289 0.418229 0)
(0.640597 0.412216 0)
(0.537912 0.443591 0)
(0.478549 0.431095 0)
(0.375138 0.476617 0)
(0.332278 0.519624 0)
(0.222465 0.584054 0)
(0.145712 0.681487 0)
(3 1.36191e-14 0)
(3 4.60193e-14 0)
(3 4.43563e-13 0)
(3 3.05355e-12 0)
(3 3.78444e-11 0)
(3 2.58784e-10 0)
(3 -1.65996e-09 0)
(3 2.99008e-08 0)
(3 5.61522e-08 0)
(3.00002 1.93735e-06 0)
(2.9999 9.23929e-06 0)
(3.00093 0.000138038 0)
(2.99709 0.000947263 0)
(3.04831 0.0107109 0)
(3.00472 0.0595447 0)
(2.45221 0.245286 0)
(0.680756 0.501029 0)
(0.69688 0.449833 0)
(0.67098 0.476448 0)
(0.614329 0.498296 0)
(0.546927 0.508973 0)
(0.441566 0.551495 0)
(0.379421 0.612385 0)
(0.294155 0.699361 0)
(0.097569 0.914241 0)
(3 1.3391e-14 0)
(3 3.78502e-13 0)
(3 2.76091e-12 0)
(3 -2.21143e-12 0)
(3 9.51305e-11 0)
(3 5.26563e-10 0)
(3 8.89034e-09 0)
(3 7.50657e-08 0)
(3 -5.52994e-08 0)
(3.00001 2.77267e-06 0)
(2.99998 4.73811e-06 0)
(3.00032 0.000174481 0)
(3.00017 0.000833212 0)
(3.0206 -0.0422345 0)
(3.02976 0.0684587 0)
(2.57481 0.230886 0)
(0.843798 0.558031 0)
(0.655841 0.457733 0)
(0.696086 0.488172 0)
(0.663713 0.571758 0)
(0.623926 0.581096 0)
(0.529078 0.629649 0)
(0.46837 0.697691 0)
(0.47491 0.800872 0)
(0.415457 1.08623 0)
(3 2.6689e-14 0)
(3 -1.89616e-13 0)
(3 1.6619e-12 0)
(3 6.30809e-13 0)
(3 8.71619e-11 0)
(3 6.1743e-10 0)
(3 1.03835e-10 0)
(3 2.01948e-08 0)
(3 5.0077e-08 0)
(2.99999 1.28592e-06 0)
(3.00005 7.53804e-06 0)
(2.99985 0.000100819 0)
(3.00235 0.000784727 0)
(2.99964 0.00866966 0)
(3.06495 0.0596772 0)
(2.70622 0.222282 0)
(1.10088 0.651091 0)
(0.583326 0.467381 0)
(0.678416 0.505175 0)
(0.685573 0.587554 0)
(0.686384 0.653802 0)
(0.631119 0.707284 0)
(0.595091 0.76131 0)
(0.680083 0.853906 0)
(0.673622 1.00685 0)
(3 -3.76208e-14 0)
(3 6.32544e-14 0)
(3 3.00959e-13 0)
(3 2.58383e-12 0)
(3 5.68797e-11 0)
(3 4.94826e-11 0)
(3 2.29426e-09 0)
(3 3.45341e-09 0)
(3 4.63424e-08 0)
(3 5.57368e-07 0)
(3.00001 -1.47878e-06 0)
(3.00003 6.18583e-05 0)
(3.00072 -0.000467257 0)
(3.00222 0.00425558 0)
(3.07377 0.0439142 0)
(2.85189 0.174801 0)
(1.55431 0.756181 0)
(0.563905 0.498565 0)
(0.67877 0.513785 0)
(0.692803 0.588599 0)
(0.698111 0.670567 0)
(0.72707 0.747091 0)
(0.724682 0.801899 0)
(0.800949 0.889477 0)
(0.875979 0.903838 0)
(3 -3.77064e-15 0)
(3 -2.8638e-15 0)
(3 -3.16148e-13 0)
(3 -1.98483e-12 0)
(3 1.70929e-11 0)
(3 -2.94538e-11 0)
(3 5.40407e-10 0)
(3 -2.91826e-09 0)
(3 8.93074e-09 0)
(3 7.7958e-07 0)
(3.00001 4.0611e-06 0)
(2.99998 5.19719e-05 0)
(3.00071 0.000356071 0)
(2.99949 0.00346762 0)
(3.0608 0.0283277 0)
(2.94476 0.0997323 0)
(2.13825 0.790779 0)
(0.660948 0.585107 0)
(0.714242 0.548641 0)
(0.718394 0.590441 0)
(0.728755 0.660981 0)
(0.768033 0.738026 0)
(0.812876 0.802467 0)
(0.894716 0.879407 0)
(0.975695 0.875612 0)
(3 -4.26187e-15 0)
(3 3.66777e-14 0)
(3 1.22384e-13 0)
(3 2.76548e-12 0)
(3 1.86658e-11 0)
(3 -1.54498e-11 0)
(3 6.19205e-10 0)
(3 9.72028e-10 0)
(3 3.47406e-08 0)
(3 1.86495e-07 0)
(3.00003 2.75524e-06 0)
(2.99987 2.00052e-05 0)
(3.00121 0.000230703 0)
(2.99659 0.0019235 0)
(3.05757 0.0209202 0)
(2.99642 0.0835414 0)
(2.50284 0.657274 0)
(0.895411 0.698106 0)
(0.787818 0.589527 0)
(0.765801 0.611737 0)
(0.771345 0.661917 0)
(0.806431 0.732297 0)
(0.864436 0.794697 0)
(0.952388 0.868931 0)
(1.04432 0.872115 0)
(3 1.80575e-16 0)
(3 1.46482e-14 0)
(3 2.2843e-13 0)
(3 6.7997e-12 0)
(3 -1.84193e-11 0)
(3 2.2287e-10 0)
(3 -5.56368e-10 0)
(3 1.00676e-08 0)
(3 1.25496e-07 0)
(3 -1.06376e-07 0)
(3 3.38339e-06 0)
(3.00001 1.16781e-05 0)
(3.00017 -8.44739e-05 0)
(3.00065 0.00206304 0)
(3.01672 -0.0450494 0)
(3.03436 0.106107 0)
(2.72553 0.519368 0)
(1.23916 0.816705 0)
(0.817857 0.638416 0)
(0.82263 0.639903 0)
(0.826923 0.673789 0)
(0.852948 0.726754 0)
(0.905513 0.776952 0)
(0.986461 0.834318 0)
(1.0852 0.848644 0)
(3 7.21792e-17 0)
(3 3.77098e-15 0)
(3 5.79631e-14 0)
(3 2.84335e-13 0)
(3 1.87035e-12 0)
(3 1.878e-11 0)
(3 1.07037e-12 0)
(3 7.63344e-10 0)
(3 2.54888e-08 0)
(3 1.18335e-07 0)
(2.99999 1.89011e-06 0)
(3.00009 1.21833e-05 0)
(2.99955 0.000136193 0)
(3.00337 0.00100151 0)
(2.98988 0.0100662 0)
(3.0816 0.0697859 0)
(2.91673 0.358313 0)
(1.76384 0.918012 0)
(0.827179 0.694383 0)
(0.857418 0.683609 0)
(0.871396 0.702291 0)
(0.891028 0.737364 0)
(0.93735 0.769526 0)
(1.01248 0.808784 0)
(1.10022 0.833467 0)
(3 8.70211e-16 0)
(3 1.00537e-14 0)
(3 1.07537e-13 0)
(3 -5.00899e-13 0)
(3 6.64514e-12 0)
(3 5.31844e-12 0)
(3 3.81402e-10 0)
(3 9.5415e-10 0)
(3 2.80764e-08 0)
(3 1.64179e-07 0)
(3 -2.67657e-07 0)
(3.00003 8.68518e-06 0)
(2.99988 1.53084e-05 0)
(3.00139 0.000531091 0)
(2.99801 0.00285168 0)
(3.07217 0.0388318 0)
(3.01343 0.204237 0)
(2.3568 0.927197 0)
(0.98698 0.771881 0)
(0.9216 0.718617 0)
(0.925743 0.708303 0)
(0.943477 0.729056 0)
(0.980057 0.755106 0)
(1.03948 0.788854 0)
(1.123 0.807035 0)
(3 -9.97081e-17 0)
(3 4.60529e-15 0)
(3 7.91622e-15 0)
(3 3.68512e-13 0)
(3 2.05238e-12 0)
(3 1.50836e-11 0)
(3 3.90074e-10 0)
(3 2.07788e-09 0)
(3 2.14666e-09 0)
(3 7.42724e-08 0)
(3 4.44805e-08 0)
(3 -1.0799e-07 0)
(3.00001 2.19515e-05 0)
(3.00025 -4.42014e-05 0)
(3.00101 0.00275449 0)
(3.02172 -0.0248883 0)
(3.05277 0.152716 0)
(2.71954 0.736496 0)
(1.32636 0.864077 0)
(0.987259 0.7599 0)
(0.980252 0.73404 0)
(0.994108 0.743314 0)
(1.0225 0.759523 0)
(1.06972 0.781592 0)
(1.1406 0.792889 0)
(3 2.88652e-16 0)
(3 2.31443e-15 0)
(3 -1.0643e-15 0)
(3 1.24088e-13 0)
(3 3.43903e-13 0)
(3 7.20406e-12 0)
(3 3.51646e-11 0)
(3 4.98233e-10 0)
(3 2.7555e-09 0)
(3 3.33911e-08 0)
(3 2.19421e-07 0)
(2.99999 2.38203e-06 0)
(3.00011 1.88546e-05 0)
(2.99948 0.0001804 0)
(3.00421 0.00149169 0)
(2.98921 0.0136942 0)
(3.13321 0.103587 0)
(2.98397 0.517504 0)
(1.90152 0.935776 0)
(1.03039 0.79983 0)
(1.0295 0.765506 0)
(1.04402 0.769929 0)
(1.06809 0.776065 0)
(1.10541 0.783196 0)
(1.16102 0.786365 0)
(3 1.11561e-16 0)
(3 2.09565e-17 0)
(3 1.5602e-14 0)
(3 4.76501e-14 0)
(3 1.99548e-12 0)
(3 1.42893e-11 0)
(3 1.03406e-11 0)
(3 5.6514e-10 0)
(3 -1.5301e-09 0)
(3 3.14736e-08 0)
(3 3.47166e-07 0)
(3 -4.55476e-07 0)
(3.00001 9.09796e-06 0)
(3.00004 2.84913e-06 0)
(3.00042 0.00033133 0)
(3.00338 0.00985014 0)
(3.0375 -0.107986 0)
(3.06841 0.311988 0)
(2.49666 0.995135 0)
(1.22005 0.879225 0)
(1.08184 0.832185 0)
(1.08191 0.79187 0)
(1.10382 0.788252 0)
(1.13978 0.787339 0)
(1.18715 0.783953 0)
(3 4.16401e-17 0)
(3 5.13388e-16 0)
(3 2.51041e-15 0)
(3 2.59064e-14 0)
(3 1.98248e-13 0)
(3 2.00644e-12 0)
(3 1.36177e-11 0)
(3 1.31055e-10 0)
(3 9.60679e-10 0)
(3 8.38131e-09 0)
(3 7.11145e-08 0)
(3 5.54575e-07 0)
(3.00003 5.0634e-06 0)
(2.99998 3.74192e-05 0)
(2.99832 0.000363707 0)
(3.01277 0.00303723 0)
(2.96307 0.025024 0)
(3.21079 0.188969 0)
(2.92943 0.749524 0)
(1.68795 0.944059 0)
(1.15906 0.857393 0)
(1.13533 0.80823 0)
(1.14871 0.801112 0)
(1.17672 0.793375 0)
(1.21585 0.787056 0)
(3 5.1382e-17 0)
(3 -4.38033e-15 0)
(3 1.18136e-14 0)
(3 1.2812e-13 0)
(3 -2.02908e-13 0)
(3 4.08422e-12 0)
(3 9.64595e-12 0)
(3 2.25661e-10 0)
(3 1.45402e-09 0)
(3 -1.13622e-09 0)
(3 9.57087e-08 0)
(3 5.69312e-08 0)
(3 4.20145e-06 0)
(3.00002 4.70774e-05 0)
(3.00005 -1.44788e-05 0)
(3.00085 0.00041749 0)
(3.00548 0.0178105 0)
(3.05275 -0.299076 0)
(3.08989 0.529875 0)
(2.31409 1.0571 0)
(1.23483 0.900781 0)
(1.17835 0.865937 0)
(1.18807 0.819309 0)
(1.2106 0.804899 0)
(1.24487 0.793656 0)
(3 2.15877e-19 0)
(3 1.89714e-19 0)
(3 5.6261e-16 0)
(3 -1.33158e-15 0)
(3 5.25485e-14 0)
(3 3.76183e-13 0)
(3 3.76461e-12 0)
(3 2.5304e-11 0)
(3 1.28921e-10 0)
(3 1.43436e-09 0)
(3 1.62542e-08 0)
(3 1.29825e-07 0)
(3 1.09032e-06 0)
(3.00002 4.74628e-06 0)
(3.00022 6.52542e-05 0)
(2.99839 0.000590142 0)
(3.00857 0.00465093 0)
(2.91715 0.0364221 0)
(3.30139 0.314139 0)
(2.92698 0.971016 0)
(1.63481 0.984578 0)
(1.25188 0.900501 0)
(1.23661 0.834202 0)
(1.25223 0.820888 0)
(1.27875 0.807409 0)
(3 6.15318e-17 0)
(3 1.08414e-15 0)
(3 -2.14513e-15 0)
(3 9.86833e-15 0)
(3 -1.04311e-14 0)
(3 2.69977e-13 0)
(3 1.45979e-12 0)
(3 8.95985e-12 0)
(3 4.51453e-11 0)
(3 1.52353e-09 0)
(3 -1.18955e-09 0)
(3 1.24324e-07 0)
(3 7.54092e-08 0)
(3 5.08394e-06 0)
(3.00002 5.05126e-05 0)
(3.00008 7.09544e-05 0)
(3.00132 0.00108032 0)
(3.00524 0.00892646 0)
(3.08165 -0.216212 0)
(3.12467 0.668081 0)
(2.29287 1.06407 0)
(1.33289 0.921575 0)
(1.281 0.87943 0)
(1.29588 0.836146 0)
(1.31513 0.820978 0)
(3 -1.02587e-16 0)
(3 -3.4999e-17 0)
(3 1.23849e-16 0)
(3 -5.03651e-16 0)
(3 1.24314e-14 0)
(3 9.02221e-14 0)
(3 7.80771e-13 0)
(3 -9.65278e-13 0)
(3 4.7301e-11 0)
(3 3.31228e-10 0)
(3 2.87006e-09 0)
(3 2.50329e-08 0)
(3 1.92963e-07 0)
(2.99999 1.56186e-06 0)
(3.00005 1.28664e-05 0)
(2.99996 7.95247e-05 0)
(2.9979 0.000835522 0)
(3.01626 0.00627031 0)
(2.93793 0.0507058 0)
(3.32827 0.396751 0)
(2.92093 1.04178 0)
(1.6963 0.997368 0)
(1.36068 0.934586 0)
(1.33716 0.864462 0)
(1.35096 0.847866 0)
(3 6.96563e-17 0)
(3 -8.72466e-17 0)
(3 -9.97742e-16 0)
(3 -2.90291e-16 0)
(3 9.07178e-15 0)
(3 1.27538e-13 0)
(3 -2.07233e-13 0)
(3 4.60714e-12 0)
(3 -2.07138e-11 0)
(3 7.49107e-11 0)
(3 3.11471e-09 0)
(3 2.12513e-09 0)
(3 1.49852e-07 0)
(3 1.83926e-07 0)
(3 7.55253e-06 0)
(3.00002 5.99988e-05 0)
(3.00009 4.58408e-05 0)
(3.00158 0.000381978 0)
(3.00593 0.0132329 0)
(3.10855 -0.216641 0)
(3.15956 0.764098 0)
(2.33804 1.08314 0)
(1.44268 0.949114 0)
(1.38328 0.910749 0)
(1.39174 0.863851 0)
(3 2.46795e-16 0)
(3 4.4358e-16 0)
(3 4.89456e-16 0)
(3 1.17099e-15 0)
(3 3.06683e-15 0)
(3 1.81457e-14 0)
(3 1.22446e-13 0)
(3 8.97365e-13 0)
(3 8.3887e-12 0)
(3 5.96933e-11 0)
(3 5.41845e-10 0)
(3 4.03603e-09 0)
(3 3.30104e-08 0)
(3 2.52205e-07 0)
(3 2.00298e-06 0)
(3.00005 1.54767e-05 0)
(2.99999 0.000101226 0)
(2.9978 0.000971748 0)
(3.01912 0.00715329 0)
(2.93421 0.0570816 0)
(3.36028 0.42183 0)
(2.96865 1.06876 0)
(1.80556 1.01931 0)
(1.44945 0.974967 0)
(1.42276 0.896987 0)
(3 -1.65905e-17 0)
(3 9.03011e-17 0)
(3 2.89108e-16 0)
(3 6.24834e-16 0)
(3 -1.87766e-15 0)
(3 7.42992e-15 0)
(3 8.74637e-14 0)
(3 1.48939e-12 0)
(3 -1.48044e-12 0)
(3 6.13901e-11 0)
(3 -4.53799e-10 0)
(3 2.87635e-09 0)
(3 -2.41939e-08 0)
(3 1.72705e-07 0)
(3 -7.8846e-07 0)
(3 8.06137e-06 0)
(3.00003 5.52498e-05 0)
(3.00007 6.51976e-05 0)
(3.00185 -0.00319071 0)
(3.00362 0.00970889 0)
(3.13194 -0.0999543 0)
(3.24532 0.751118 0)
(2.47222 1.08342 0)
(1.55176 0.963898 0)
(1.47848 0.943958 0)
(3 -1.76462e-16 0)
(3 -4.70539e-16 0)
(3 -6.82112e-16 0)
(3 -8.32595e-16 0)
(3 -5.76344e-16 0)
(3 2.0303e-15 0)
(3 2.01573e-14 0)
(3 1.60295e-13 0)
(3 1.04989e-12 0)
(3 5.93495e-12 0)
(3 -5.60819e-12 0)
(3 5.32285e-10 0)
(3 3.97122e-09 0)
(3 3.01596e-08 0)
(3 2.88823e-07 0)
(3 2.49033e-06 0)
(3.00002 -1.38289e-05 0)
(3.00005 0.000117478 0)
(2.9982 0.000999 0)
(3.01528 0.00676731 0)
(2.95648 0.0566067 0)
(3.34072 0.393195 0)
(3.04414 1.046 0)
(1.95414 1.04198 0)
(1.55414 0.989715 0)
(3 8.52951e-36 0)
(3 -5.06165e-17 0)
(3 -3.30434e-16 0)
(3 -4.70913e-16 0)
(3 -9.49526e-16 0)
(3 9.37697e-16 0)
(3 -7.84108e-16 0)
(3 9.43417e-14 0)
(3 3.40169e-13 0)
(3 4.9847e-12 0)
(3 3.12352e-11 0)
(3 2.35328e-10 0)
(3 -7.83793e-10 0)
(3 1.03215e-08 0)
(3 4.07207e-08 0)
(3 5.92207e-07 0)
(2.99999 5.73514e-06 0)
(3.00005 3.28596e-05 0)
(2.99997 -5.49467e-05 0)
(3.00219 -0.00513623 0)
(3.00274 0.00999229 0)
(3.13127 0.00124946 0)
(3.32207 0.65869 0)
(2.63707 1.0673 0)
(1.70681 0.969523 0)
(3 -2.96283e-33 0)
(3 2.53609e-17 0)
(3 1.89097e-17 0)
(3 1.69016e-16 0)
(3 1.75819e-16 0)
(3 6.03384e-16 0)
(3 3.05232e-15 0)
(3 -6.33686e-15 0)
(3 1.16414e-13 0)
(3 1.05818e-12 0)
(3 1.19533e-11 0)
(3 6.10435e-11 0)
(3 9.69869e-10 0)
(3 6.48223e-09 0)
(3 1.32854e-08 0)
(3 2.42789e-07 0)
(3 -1.92171e-07 0)
(3 1.20548e-05 0)
(3.00009 8.08092e-05 0)
(2.99879 0.000803228 0)
(3.00883 0.0055467 0)
(2.98339 0.0479449 0)
(3.31826 0.362249 0)
(3.13132 0.966837 0)
(2.18424 1.04666 0)
(3 -1.02638e-16 0)
(3 -2.63045e-16 0)
(3 -2.43378e-16 0)
(3 -3.01419e-16 0)
(3 -3.14474e-16 0)
(3 -2.43574e-16 0)
(3 1.35121e-16 0)
(3 -7.65668e-15 0)
(3 8.32765e-14 0)
(3 -1.12806e-13 0)
(3 5.57002e-12 0)
(3 3.22645e-11 0)
(3 4.21822e-11 0)
(3 1.31822e-09 0)
(3 4.21364e-09 0)
(3 5.26144e-08 0)
(3 2.75684e-07 0)
(3 -7.9994e-07 0)
(3.00001 2.06576e-05 0)
(3.00007 -0.000142277 0)
(3.00109 0.000471092 0)
(3.00603 0.00803836 0)
(3.10452 0.0774422 0)
(3.4618 0.596951 0)
(2.91989 0.997766 0)
(3 -2.56595e-16 0)
(3 5.13189e-17 0)
(3 -3.59232e-16 0)
(3 -5.05008e-16 0)
(3 -6.41459e-16 0)
(3 -7.42354e-16 0)
(3 -1.53002e-15 0)
(3 1.00918e-15 0)
(3 1.34214e-14 0)
(3 1.03825e-13 0)
(3 -5.07571e-13 0)
(3 9.04995e-12 0)
(3 1.55709e-11 0)
(3 4.70934e-10 0)
(3 1.85517e-09 0)
(3 2.3082e-08 0)
(3 1.41729e-07 0)
(3 1.37546e-06 0)
(3.00001 1.08986e-05 0)
(3 8.98331e-05 0)
(3.00001 0.000813928 0)
(3.00265 -0.0167453 0)
(3.00582 0.0498372 0)
(3.26421 -0.302722 0)
(3.20304 0.90471 0)
(3 -6.04381e-17 0)
(3 1.53957e-16 0)
(3 2.56595e-16 0)
(3 3.07913e-16 0)
(3 2.17718e-16 0)
(3 6.68539e-16 0)
(3 7.01678e-16 0)
(3 1.38542e-15 0)
(3 4.45371e-15 0)
(3 -5.05776e-15 0)
(3 1.28036e-13 0)
(3 4.19017e-13 0)
(3 -1.29203e-12 0)
(3 -8.10385e-12 0)
(3 1.58353e-10 0)
(3 -1.94033e-09 0)
(3 3.24172e-08 0)
(3 1.02217e-07 0)
(3.00001 1.87803e-06 0)
(2.99997 1.19971e-05 0)
(3.00037 0.000114826 0)
(2.99899 -0.00221455 0)
(2.9991 0.00802604 0)
(2.91505 0.071174 0)
(3.4811 0.491468 0)
(3 5.13189e-17 0)
(3 4.704e-17 0)
(3 1.02638e-16 0)
(3 4.35228e-17 0)
(3 1.46998e-16 0)
(3 4.54596e-16 0)
(3 9.45381e-16 0)
(3 4.06177e-16 0)
(3 1.88146e-15 0)
(3 1.26722e-14 0)
(3 8.70715e-14 0)
(3 1.28117e-13 0)
(3 4.12118e-12 0)
(3 1.83676e-11 0)
(3 3.27837e-10 0)
(3 1.0195e-09 0)
(3 1.84771e-08 0)
(3 8.0661e-08 0)
(3 1.35951e-06 0)
(3.00001 -2.4426e-05 0)
(3.00001 7.19252e-05 0)
(2.99938 0.000233473 0)
(3.00398 0.00304247 0)
(2.99846 0.0020473 0)
(3.14995 0.0351034 0)
(3 1.53957e-16 0)
(3 1.53957e-16 0)
(3 1.12498e-17 0)
(3 1.96081e-16 0)
(3 2.79213e-16 0)
(3 2.0739e-16 0)
(3 7.16965e-17 0)
(3 4.3695e-16 0)
(3 1.01581e-15 0)
(3 1.8721e-15 0)
(3 1.58372e-14 0)
(3 7.42296e-14 0)
(3 8.81195e-13 0)
(3 4.78405e-12 0)
(3 5.08037e-11 0)
(3 6.79065e-11 0)
(3 -1.56626e-09 0)
(3 2.71307e-08 0)
(3 2.28552e-07 0)
(3 1.71822e-06 0)
(3.00001 1.7458e-05 0)
(3.00009 -1.65906e-05 0)
(2.99997 0.000721351 0)
(3.00639 0.00500691 0)
(2.97676 0.046697 0)
(3 -1.02638e-16 0)
(3 -2.60214e-17 0)
(3 1.45119e-16 0)
(3 3.50743e-16 0)
(3 4.24107e-16 0)
(3 2.14392e-16 0)
(3 2.70442e-17 0)
(3 -1.54492e-17 0)
(3 2.34099e-16 0)
(3 1.8758e-15 0)
(3 1.24668e-14 0)
(3 2.88553e-14 0)
(3 6.16716e-13 0)
(3 1.44094e-12 0)
(3 3.67356e-11 0)
(3 1.24295e-10 0)
(3 1.3401e-09 0)
(3 9.96179e-10 0)
(3 8.21813e-08 0)
(3 2.5522e-07 0)
(3.00001 3.92369e-06 0)
(3 2.67154e-05 0)
(3.00007 0.000123941 0)
(3.00079 0.000796473 0)
(3.00411 0.00443659 0)
(3 5.13189e-17 0)
(3 5.54885e-17 0)
(3 4.7122e-17 0)
(3 1.44947e-16 0)
(3 -4.22331e-17 0)
(3 -1.03004e-16 0)
(3 -1.5982e-16 0)
(3 -2.29493e-16 0)
(3 -4.83194e-16 0)
(3 -5.8568e-16 0)
(3 1.88751e-15 0)
(3 4.33715e-14 0)
(3 2.8379e-13 0)
(3 3.48391e-13 0)
(3 1.16458e-11 0)
(3 5.12882e-11 0)
(3 5.1211e-11 0)
(3 4.46582e-09 0)
(3 2.59457e-08 0)
(3 -2.3442e-07 0)
(3 2.27139e-06 0)
(3 9.09456e-06 0)
(3.00003 -3.76463e-05 0)
(3.00008 0.000467923 0)
(3.00114 -0.000577986 0)
(3 1.12736e-16 0)
(3 3.06918e-16 0)
(3 3.45445e-16 0)
(3 5.13189e-17 0)
(3 5.13189e-17 0)
(3 -2.56595e-16 0)
(3 -5.13189e-16 0)
(3 -4.71936e-16 0)
(3 -9.68191e-16 0)
(3 -1.17219e-15 0)
(3 -1.40593e-15 0)
(3 3.31414e-15 0)
(3 6.01916e-14 0)
(3 1.53229e-13 0)
(3 2.16526e-12 0)
(3 1.17663e-11 0)
(3 1.13383e-10 0)
(3 3.09372e-10 0)
(3 -9.58309e-10 0)
(3 5.85299e-08 0)
(3 3.31139e-07 0)
(3 1.64728e-06 0)
(2.99999 1.2643e-05 0)
(3.00017 8.30418e-05 0)
(2.99955 0.000744898 0)
(3 -5.13189e-17 0)
(3 -2.56595e-16 0)
(3 -2.56595e-16 0)
(3 -3.07913e-16 0)
(3 -3.59232e-16 0)
(3 -3.67038e-16 0)
(3 -4.53321e-16 0)
(3 -4.83353e-16 0)
(3 -2.39065e-16 0)
(3 -6.57998e-17 0)
(3 1.45976e-15 0)
(3 3.21031e-17 0)
(3 2.52906e-14 0)
(3 6.143e-14 0)
(3 8.98121e-13 0)
(3 5.11029e-12 0)
(3 3.43775e-11 0)
(3 3.46951e-10 0)
(3 2.18475e-09 0)
(3 3.26158e-09 0)
(3 1.34078e-07 0)
(3 3.93755e-07 0)
(3.00001 2.15679e-06 0)
(2.99997 2.99291e-05 0)
(3.00025 0.00013091 0)
(3 2.0674e-17 0)
(3 -1.2583e-16 0)
(3 1.02557e-16 0)
(3 3.07783e-16 0)
(3 4.54466e-16 0)
(3 5.06333e-16 0)
(3 5.43695e-16 0)
(3 5.83058e-16 0)
(3 5.68956e-16 0)
(3 6.88996e-16 0)
(3 6.73662e-16 0)
(3 1.92994e-15 0)
(3 -1.25655e-14 0)
(3 3.6281e-14 0)
(3 6.56365e-14 0)
(3 8.88015e-13 0)
(3 5.93463e-12 0)
(3 4.6473e-11 0)
(3 4.24743e-10 0)
(3 4.33863e-09 0)
(3 2.11652e-08 0)
(3 1.75432e-07 0)
(3 1.57165e-06 0)
(3 3.92238e-06 0)
(3.00004 5.22599e-05 0)
(3 1.53957e-16 0)
(3 2.90643e-16 0)
(3 1.82139e-16 0)
(3 1.02638e-16 0)
(3 2.05276e-16 0)
(3 3.61881e-16 0)
(3 1.4502e-16 0)
(3 1.76712e-16 0)
(3 -6.94666e-17 0)
(3 -2.00267e-16 0)
(3 -1.05225e-16 0)
(3 -5.43819e-16 0)
(3 5.60694e-16 0)
(3 8.03874e-15 0)
(3 6.19757e-14 0)
(3 1.87157e-13 0)
(3 2.71427e-12 0)
(3 2.1037e-11 0)
(3 1.49576e-10 0)
(3 7.25222e-10 0)
(3 8.33348e-09 0)
(3 4.59798e-08 0)
(3 4.26874e-07 0)
(3 1.24766e-06 0)
(3.00001 1.64336e-05 0)
(3 -1.02638e-16 0)
(3 -3.59232e-16 0)
(3 -3.77615e-16 0)
(3 -7.69784e-16 0)
(3 -7.69784e-16 0)
(3 -7.18465e-16 0)
(3 -5.95744e-16 0)
(3 -6.67148e-16 0)
(3 -7.91343e-16 0)
(3 -5.07531e-16 0)
(3 -2.73417e-16 0)
(3 -5.96847e-16 0)
(3 -1.58978e-16 0)
(3 2.53069e-15 0)
(3 7.30546e-15 0)
(3 8.19614e-14 0)
(3 2.56942e-13 0)
(3 1.40805e-12 0)
(3 3.54784e-11 0)
(3 1.63129e-10 0)
(3 1.78683e-09 0)
(3 9.26334e-09 0)
(3 -5.07281e-08 0)
(3 5.23365e-07 0)
(3 1.95799e-06 0)
(3 -1.02638e-16 0)
(3 -1.53957e-16 0)
(3 -1.53957e-16 0)
(3 -5.13189e-17 0)
(3 -5.13189e-17 0)
(3 -5.13189e-17 0)
(3 -5.13189e-17 0)
(3 -1.02638e-16 0)
(3 -5.13169e-17 0)
(3 -1.02717e-16 0)
(3 -1.02722e-16 0)
(3 -1.23083e-16 0)
(3 9.21753e-17 0)
(3 -2.77212e-15 0)
(3 5.57102e-15 0)
(3 7.06091e-15 0)
(3 1.10322e-13 0)
(3 7.77157e-13 0)
(3 1.14194e-11 0)
(3 3.72856e-11 0)
(3 4.19302e-10 0)
(3 1.96756e-09 0)
(3 1.96969e-08 0)
(3 1.63353e-07 0)
(3 -5.01192e-07 0)
(3 5.13189e-17 0)
(3 -5.13189e-17 0)
(3 5.13189e-17 0)
(3 9.19145e-18 0)
(3 9.34464e-17 0)
(3 -1.02638e-16 0)
(3 -1.02638e-16 0)
(3 -1.02638e-16 0)
(3 -1.10458e-16 0)
(3 -3.04416e-16 0)
(3 -4.61418e-16 0)
(3 -6.40317e-16 0)
(3 -8.58458e-16 0)
(3 -7.75964e-16 0)
(3 -4.1884e-16 0)
(3 4.9781e-15 0)
(3 -8.61263e-14 0)
(3 -6.78394e-14 0)
(3 2.31102e-12 0)
(3 9.90532e-12 0)
(3 9.4898e-11 0)
(3 6.05661e-10 0)
(3 1.04154e-09 0)
(3 1.96216e-08 0)
(3 1.09573e-07 0)
(3 5.13189e-17 0)
(3 1.55253e-16 0)
(3 5.00227e-17 0)
(3 6.51061e-17 0)
(3 3.75317e-17 0)
(3 -2.56595e-16 0)
(3 -5.13189e-16 0)
(3 -6.67146e-16 0)
(3 -8.72421e-16 0)
(3 -8.72421e-16 0)
(3 -9.19204e-16 0)
(3 -8.21161e-16 0)
(3 -7.69778e-16 0)
(3 -6.2643e-16 0)
(3 -4.58329e-16 0)
(3 -2.05108e-16 0)
(3 2.20455e-15 0)
(3 1.82011e-14 0)
(3 5.04722e-13 0)
(3 2.54542e-12 0)
(3 5.53224e-12 0)
(3 8.10652e-11 0)
(3 -1.96253e-11 0)
(3 1.18102e-08 0)
(3 3.14422e-09 0)
(3 5.13189e-17 0)
(3 2.05276e-16 0)
(3 3.07913e-16 0)
(3 3.07913e-16 0)
(3 4.10551e-16 0)
(3 4.6187e-16 0)
(3 4.6187e-16 0)
(3 4.55729e-16 0)
(3 6.0024e-16 0)
(3 2.20605e-16 0)
(3 1.53915e-16 0)
(3 -3.58981e-16 0)
(3 -6.66867e-16 0)
(3 -9.74783e-16 0)
(3 -1.04704e-15 0)
(3 -1.43602e-15 0)
(3 -9.60828e-15 0)
(3 -3.61782e-14 0)
(3 1.68453e-13 0)
(3 -1.39099e-12 0)
(3 6.80115e-12 0)
(3 -9.0352e-11 0)
(3 -2.421e-10 0)
(3 3.49643e-09 0)
(3 -1.20715e-08 0)
(3 -5.13189e-17 0)
(3 -1.02638e-16 0)
(3 -3.07913e-16 0)
(3 -3.74676e-16 0)
(3 -4.49955e-16 0)
(3 -5.28839e-16 0)
(3 -2.92263e-16 0)
(3 -1.09732e-16 0)
(3 -5.13189e-17 0)
(3 -1.53957e-16 0)
(3 -2.05276e-16 0)
(3 -3.59232e-16 0)
(3 -3.59232e-16 0)
(3 -4.60869e-16 0)
(3 -5.1258e-16 0)
(3 -3.53584e-16 0)
(3 1.91096e-15 0)
(3 1.48437e-14 0)
(3 2.7128e-14 0)
(3 6.29026e-13 0)
(3 2.27875e-12 0)
(3 4.23742e-11 0)
(3 2.43773e-10 0)
(3 1.3491e-09 0)
(3 1.32274e-09 0)
(3 -1.02638e-16 0)
(3 -2.56595e-16 0)
(3 -5.64508e-16 0)
(3 -7.18465e-16 0)
(3 -8.72421e-16 0)
(3 -9.75059e-16 0)
(3 -9.11147e-16 0)
(3 -1.15294e-15 0)
(3 -1.10509e-15 0)
(3 -9.2374e-16 0)
(3 -6.15827e-16 0)
(3 -2.56595e-16 0)
(3 -9.75067e-17 0)
(3 2.24266e-16 0)
(3 2.55126e-16 0)
(3 3.96062e-16 0)
(3 5.16116e-16 0)
(3 1.52201e-16 0)
(3 7.04986e-15 0)
(3 -5.06522e-14 0)
(3 4.31487e-14 0)
(3 -2.42148e-12 0)
(3 -1.58604e-11 0)
(3 1.51745e-10 0)
(3 -1.83475e-09 0)
(1.18114 1.06481 0)
(0.560368 0.638247 0)
(-0.589483 0.0408153 0)
(-0.435061 -0.167034 0)
(-0.590162 -0.168999 0)
(-0.462341 -0.0889859 0)
(-0.686642 0.0848777 0)
(-1.00185 0.140715 0)
(-1.18276 0.139681 0)
(-1.2612 0.0963836 0)
(-1.27905 0.0595761 0)
(-1.27013 0.0280718 0)
(-1.26685 0.0274839 0)
(-1.28641 0.0180683 0)
(-1.37205 -0.00197804 0)
(-1.44229 -0.0215812 0)
(-1.48834 -0.0206552 0)
(-1.51058 -0.0175902 0)
(-1.51818 -0.0156601 0)
(-1.5085 -0.0108375 0)
(-1.50524 -0.0101954 0)
(-1.50336 -0.00996143 0)
(-1.50344 -0.00820048 0)
(-1.50923 -0.00747674 0)
(-1.51453 -0.00641038 0)
(-1.52178 -0.00324754 0)
(-1.52771 -0.000770675 0)
(-1.53177 0.00354465 0)
(-1.53407 0.00399103 0)
(-1.53494 0.00379497 0)
(-1.53296 0.00227709 0)
(-1.51138 0.00357191 0)
(-1.49028 0.00474718 0)
(-1.4393 0.00637474 0)
(-1.37613 0.00254097 0)
(-1.30966 -0.00398629 0)
(-1.23836 -0.0200234 0)
(-1.15098 -0.0340792 0)
(-1.05733 -0.0439578 0)
(-0.964222 -0.0534284 0)
(-0.870731 -0.0470406 0)
(-0.771342 -0.0364921 0)
(-0.672471 -0.0231142 0)
(-0.569813 -0.00931853 0)
(-0.471529 0.00279727 0)
(-0.38737 0.0159309 0)
(-0.328105 0.0117221 0)
(-0.228766 -0.0134694 0)
(-0.134556 -0.0166533 0)
(-0.0600143 -0.0319076 0)
(0.0505324 -0.0331939 0)
(0.122372 -0.0261198 0)
(0.202102 -0.0293336 0)
(0.274573 -0.0297388 0)
(0.344592 -0.0301194 0)
(0.409164 -0.0289097 0)
(0.468673 -0.0276414 0)
(0.524962 -0.0265032 0)
(0.577447 -0.0245036 0)
(0.626279 -0.0226027 0)
(0.672172 -0.0211973 0)
(0.715415 -0.0198684 0)
(0.756315 -0.0184662 0)
(0.79483 -0.0171494 0)
(0.831542 -0.0158593 0)
(0.866211 -0.0145681 0)
(0.899165 -0.0133532 0)
(0.930488 -0.0122622 0)
(0.960058 -0.0113518 0)
(0.98842 -0.0105509 0)
(1.01527 -0.00989226 0)
(1.04137 -0.00916471 0)
(1.06614 -0.00850177 0)
(1.09033 -0.00786464 0)
(1.1131 -0.00732647 0)
(1.13528 -0.00672983 0)
(1.15613 -0.00622337 0)
(1.17656 -0.00568832 0)
(1.1961 -0.00525503 0)
(1.21534 -0.0047592 0)
(1.23384 -0.00438721 0)
(1.25208 -0.00395907 0)
(1.26938 -0.00367408 0)
(1.28646 -0.00329693 0)
(1.30238 -0.00305904 0)
(1.31811 -0.00276944 0)
(1.33284 -0.00259365 0)
(1.34743 -0.00232865 0)
(1.36119 -0.00215863 0)
(1.37484 -0.00189908 0)
(1.3877 -0.00173815 0)
(1.4005 -0.00145513 0)
(1.4124 -0.00130855 0)
(1.42423 -0.00104285 0)
(1.43549 -0.00101438 0)
(1.44657 -0.000725192 0)
(1.45787 -0.000886236 0)
(1.46911 -0.000500645 0)
(1.48106 -0.000517862 0)
(1.49466 0.000851996 0)
(1.22377 0.978052 0)
(1.17469 0.761968 0)
(0.738989 0.586585 0)
(0.651299 0.291957 0)
(0.137645 0.174075 0)
(-0.147758 0.133874 0)
(-0.356299 0.227745 0)
(-0.777277 0.14427 0)
(-0.901991 0.036619 0)
(-0.947521 -0.0114364 0)
(-0.882794 -0.0490167 0)
(-0.852337 -0.0395949 0)
(-0.844328 -0.0303503 0)
(-0.8996 -0.0134771 0)
(-0.989098 -0.00931156 0)
(-1.06584 0.0372736 0)
(-1.11536 0.0583849 0)
(-1.13425 0.0487729 0)
(-1.1378 0.0349507 0)
(-1.12612 0.0151775 0)
(-1.12047 0.00943319 0)
(-1.11746 0.00820355 0)
(-1.11685 0.00930049 0)
(-1.12125 0.00855865 0)
(-1.12384 0.0058901 0)
(-1.13437 0.00204548 0)
(-1.14283 0.00108355 0)
(-1.15348 -0.00201787 0)
(-1.15977 -0.00246366 0)
(-1.16205 -0.00301657 0)
(-1.15845 -0.00135322 0)
(-1.13071 -0.00463636 0)
(-1.1045 -0.00697655 0)
(-1.05603 -0.0133735 0)
(-0.986055 -0.0212873 0)
(-0.914471 -0.0266551 0)
(-0.828276 -0.0270397 0)
(-0.725321 -0.0307908 0)
(-0.617068 -0.0387552 0)
(-0.514181 -0.0368008 0)
(-0.418313 -0.0444139 0)
(-0.273073 -0.0772724 0)
(-0.157834 -0.094394 0)
(-0.00756181 -0.123865 0)
(0.142661 -0.131956 0)
(0.28188 -0.130921 0)
(0.420065 -0.13162 0)
(0.540122 -0.144328 0)
(0.62265 -0.12366 0)
(0.699895 -0.120381 0)
(0.76405 -0.118432 0)
(0.81682 -0.101775 0)
(0.870745 -0.0977673 0)
(0.916538 -0.0900932 0)
(0.958155 -0.082665 0)
(0.995285 -0.0744759 0)
(1.02848 -0.067014 0)
(1.06057 -0.0614326 0)
(1.09005 -0.0556564 0)
(1.11873 -0.0506849 0)
(1.14674 -0.0464126 0)
(1.17291 -0.0424848 0)
(1.1985 -0.0389765 0)
(1.22267 -0.0358906 0)
(1.24602 -0.0330634 0)
(1.26819 -0.0303511 0)
(1.28953 -0.0278954 0)
(1.31006 -0.0253969 0)
(1.3297 -0.023015 0)
(1.34867 -0.0207848 0)
(1.3667 -0.0190833 0)
(1.38418 -0.0176391 0)
(1.40098 -0.0164258 0)
(1.41753 -0.0151974 0)
(1.43328 -0.0140684 0)
(1.44885 -0.0129654 0)
(1.4636 -0.0120751 0)
(1.47806 -0.0112108 0)
(1.49194 -0.0104405 0)
(1.50558 -0.00961063 0)
(1.51884 -0.00881258 0)
(1.53193 -0.00791953 0)
(1.54449 -0.00708694 0)
(1.55698 -0.00624558 0)
(1.56873 -0.00554386 0)
(1.58032 -0.00485467 0)