/*--------------------------------*- C++ -*----------------------------------*\
| =========                 |                                                 |
| \\      /  F ield         | OpenFOAM: The Open Source CFD Toolbox           |
|  \\    /   O peration     | Version:  v2106                                 |
|   \\  /    A nd           | Website:  www.openfoam.com                      |
|    \\/     M anipulation  |                                                 |
\*---------------------------------------------------------------------------*/
FoamFile
{
    version     2.0;
    format      ascii;
    arch        "LSB;label=32;scalar=64";
    class       volScalarField;
    location    "7";
    object      p;
}
// * * * * * * * * * * * * * * * * * * * * * * * * * * * * * * * * * * * * * //

dimensions      [1 -1 -2 0 0 0 0];

internalField   nonuniform List<scalar> 
5250
(
1
1
1
1
1
1
1
1
1.00002
1.00008
1.00119
1.00832
1.09153
1.61874
3.8448
10.1382
11.7761
10.9752
11.3331
11.5867
11.679
11.8533
11.9701
12.0577
12.1057
1
1
1
1
1
1
1
1
1.00001
1.00012
1.00111
1.00933
1.0869
1.60023
3.78343
10.0299
11.8229
10.9477
11.32
11.5789
11.6557
11.8356
11.9609
12.043
12.0943
1
1
1
1
1
1
1
1
1.00001
1.00011
1.00101
1.00864
1.07823
1.56377
3.64882
9.77324
11.9111
10.8746
11.2638
11.5242
11.5915
11.7722
11.8882
11.9715
12.0165
1
1
1
1
1
1
1
1
1.00001
1.0001
1.00087
1.00765
1.06853
1.51003
3.43845
9.36608
12.0546
10.8032
11.2345
11.4632
11.5389
11.6926
11.809
11.8804
11.926
1
1
1
1
1
1
1
1
1.00001
1.00008
1.00072
1.00641
1.05577
1.43983
3.15492
8.81438
12.2413
10.6784
11.1458
11.3744
11.4108
11.552
11.6668
11.7363
11.7761
1
1
1
1
1
1
1
1
1.00001
1.00007
1.00055
1.00516
1.0427
1.36149
2.83585
8.05335
12.4762
10.5833
11.0567
11.2792
11.31
11.425
11.5512
11.5612
11.5911
1
1
1
1
1
1
1
1
1.00001
1.00005
1.00042
1.00389
1.03237
1.29457
2.56174
7.21564
12.5325
10.4858
10.9355
11.1589
11.1828
11.2069
11.3131
11.3376
11.3425
1
1
1
1
1
1
1
1
1
1.00004
1.00027
1.00289
1.02383
1.23368
2.29484
6.39807
12.3741
10.4996
10.8097
11.0387
11.0318
11.061
11.0546
11.0911
10.943
1
1
1
1
1
1
1
1
1
1.00003
1.00019
1.00244
1.01825
1.18714
2.08656
5.63777
11.7008
10.5216
10.6681
10.8403
10.8323
10.752
10.692
10.6258
10.3967
1
1
1
1
1
1
1
1
1
1.00003
1.00014
1.00186
1.01334
1.14226
1.87621
4.87934
10.7976
10.4848
10.5287
10.6157
10.6346
10.4768
10.2532
10.2852
9.3508
1
1
1
1
1
1
1
1
1
1.00002
1.0001
1.00139
1.00959
1.10548
1.68692
4.13396
9.7865
10.5718
10.3565
10.2444
10.2715
10.1266
9.63996
9.30259
6.82627
1
1
1
1
1
1
1
1
1
1.00001
1.00011
1.00093
1.00841
1.07154
1.51305
3.45541
8.59422
10.6019
10.1065
9.91995
9.88468
9.72948
9.03989
8.48504
6.54769
1
1
1
1
1
1
1
1
1
1.00001
1.00006
1.00051
1.0048
1.03871
1.34402
2.76269
7.28657
10.6347
9.75625
9.6637
9.55385
9.36269
8.72731
8.00783
6.6568
1
1
1
1
1
1
1
1
1
1
1.00002
1.00032
1.00245
1.02268
1.22701
2.27069
6.01368
10.4961
9.592
9.44239
9.31054
9.05768
8.48195
7.77678
6.6318
1
1
1
1
1
1
1
1
1
1
1.00002
1.00017
1.00202
1.01433
1.15146
1.91782
4.93887
9.60462
9.52532
9.27535
9.07439
8.79625
8.25944
7.57818
6.60807
1
1
1
1
1
1
1
1
1
1
1.00002
1.00009
1.00123
1.00859
1.09342
1.62017
3.90016
8.27052
9.46021
9.09048
8.81504
8.50639
8.03461
7.43348
6.60397
1
1
1
1
1
1
1
1
1
1
1.00001
1.00007
1.00065
1.00563
1.04859
1.3871
2.95911
6.80299
9.32845
8.87208
8.58804
8.30847
7.87948
7.34422
6.59948
1
1
1
1
1
1
1
1
1
1
1
1.00004
1.00023
1.00315
1.0211
1.22698
2.19775
5.33169
8.88705
8.78438
8.48879
8.18627
7.76838
7.26591
6.60417
1
1
1
1
1
1
1
1
1
1
1
1.00002
1.00018
1.00163
1.01344
1.1174
1.75182
4.13568
7.85774
8.77365
8.42569
8.05796
7.64623
7.17486
6.59237
1
1
1
1
1
1
1
1
1
1
1
1
1.00011
1.0003
1.00655
1.03645
1.41055
3.04395
6.45401
8.60154
8.23102
7.91429
7.54513
7.11181
6.58359
1
1
1
1
1
1
1
1
1
1
1
1
1.00005
1.00025
1.00311
1.0218
1.21341
2.18315
4.99228
8.04619
8.16585
7.86811
7.50118
7.07623
6.58414
1
1
1
1
1
1
1
1
1
1
1
1
1.00002
1.00015
1.00141
1.01138
1.09795
1.68738
3.7338
6.91535
8.17256
7.84972
7.45349
7.03524
6.57774
1
1
1
1
1
1
1
1
1
1
1
1
1
1.00007
1.00039
1.00489
1.03462
1.33634
2.64866
5.52494
7.87584
7.70207
7.38972
7.00347
6.57258
1
1
1
1
1
1
1
1
1
1
1
1
1
1.00003
1.00026
1.0022
1.01742
1.14563
1.90813
4.09517
6.96553
7.66755
7.3695
7.01483
6.60565
1
1
1
1
1
1
1
1
1
1
1
1
1
1
1.00011
1.00049
1.00706
1.04584
1.45096
2.94705
5.66115
7.4996
7.30872
7.0076
6.63619
1
1
1
1
1
1
1
1
1
1
1
1
1
1.00001
1.00004
1.00033
1.00278
1.02073
1.17467
2.01312
4.21343
6.72467
7.30086
7.01055
6.68144
1
1
1
1
1
1
1
1
1
1
1
1
1
1
1
1.00013
1.0005
1.00796
1.05019
1.50012
3.01053
5.55572
7.20075
7.00977
6.68096
1
1
1
1
1
1
1
1
1
1
1
1
1
1
1.00001
1.00005
1.00038
1.0031
1.02313
1.18597
2.14114
4.22973
6.46381
7.0434
6.72779
1
1
1
1
1
1
1
1
1
1
1
1
1
1
1
1.00001
1.0001
1.00082
1.00694
1.05424
1.42292
2.82763
5.09702
6.68181
6.58719
1
1
1
1
1
1
1
1
1
1
1
1
1
1
1
1.00001
1.00001
1.0004
1.00136
1.0241
1.04209
1.86235
3.81058
5.95743
6.65375
1
1
1
1
1
1
1
1
1
1
1
1
1
1
1
1
1.00001
1.00012
1.00059
1.0068
1.04228
1.36849
2.61023
4.72018
6.36594
1
1
1
1
1
1
1
1
1
1
1
1
1
1
1
1
1
1.00002
1.00025
1.00121
1.01414
1.06247
1.74859
3.39798
5.44419
1
1
1
1
1
1
1
1
1
1
1
1
1
1
1
1
1
1.00001
1.00008
1.00051
1.00517
1.03358
1.29856
2.34053
4.22199
1
1
1
1
1
1
1
1
1
1
1
1
1
1
1
1
1
1
1.00001
1.00019
1.00084
1.01061
1.05115
1.59284
2.88613
1
1
1
1
1
1
1
1
1
1
1
1
1
1
1
1
1
1
1.00001
1.00007
1.00046
1.0033
1.02267
1.17234
1.95584
1
1
1
1
1
1
1
1
1
1
1
1
1
1
1
1
1
1
1
1.00002
1.0001
1.0008
1.00566
1.03978
1.34846
1
1
1
1
1
1
1
1
1
1
1
1
1
1
1
1
1
1
1
0.999996
1.00006
1.00038
1.00006
1.01314
1.05243
1
1
1
1
1
1
1
1
1
1
1
1
1
1
1
1
1
1
1
1
1.00001
1.00008
1.00047
1.00378
1.0255
1
1
1
1
1
1
1
1
1
1
1
1
1
1
1
1
1
1
1
1
1
1.00002
1.00012
1.00025
1.00511
1
1
1
1
1
1
1
1
1
1
1
1
1
1
1
1
1
1
1
1
1
1
1.00003
1.00008
0.998464
1
1
1
1
1
1
1
1
1
1
1
1
1
1
1
1
1
1
1
1
1
1
1
1.00002
1.00028
1
1
1
1
1
1
1
1
1
1
1
1
1
1
1
1
1
1
1
1
1
1
1
1.00001
1.00009
1
1
1
1
1
1
1
1
1
1
1
1
1
1
1
1
1
1
1
1
1
1
1
1
1.00001
1
1
1
1
1
1
1
1
1
1
1
1
1
1
1
1
1
1
1
1
1
1
1
1
1.00002
1
1
1
1
1
1
1
1
1
1
1
1
1
1
1
1
1
1
1
1
1
1
1
1
1.00001
1
1
1
1
1
1
1
1
1
1
1
1
1
1
1
1
1
1
1
1
1
1
1
1
1.00002
1
1
1
1
1
1
1
1
1
1
1
1
1
1
1
1
1
1
1
1
1
1
1
1
1.00001
1
1
1
1
1
1
1
1
1
1
1
1
1
1
1
1
1
1
1
1
1
1
1
1
1.00001
1
1
1
1
1
1
1
1
1
1
1
1
1
1
1
1
1
1
1
1
1
1
1
1
1.00001
1
1
1
1
1
1
1
1
1
1
1
1
1
1
1
1
1
1
1
1
1
1
1
1
1.00001
2.68306
3.01273
3.87927
3.4185
3.78692
3.68398
3.39252
2.8689
2.63077
2.62542
2.64151
2.64921
2.64117
2.5593
2.40517
2.29653
2.25367
2.24535
2.25184
2.25584
2.25451
2.24677
2.23653
2.21991
2.20739
2.19785
2.19677
2.201
2.22001
2.24944
2.30305
2.38316
2.47981
2.59174
2.71588
2.86228
3.02227
3.1867
3.31692
3.50463
3.70364
3.87799
4.07604
4.24438
4.36353
4.50348
4.62443
4.71284
4.79521
4.85577
4.88961
4.9131
4.92274
4.926
4.92028
4.90408
4.88392
4.85616
4.82379
4.78773
4.74785
4.70472
4.66022
4.61498
4.56897
4.52202
4.47455
4.42708
4.37996
4.33337
4.28751
4.24224
4.19763
4.15342
4.10971
4.06641
4.02363
3.98145
3.94
3.8991
3.85877
3.81852
3.77852
3.73834
3.69833
3.658
3.61776
3.57717
3.53673
3.49604
3.4556
3.41497
3.37475
3.33403
3.29363
3.2519
3.21001
3.16484
3.11975
3.09371
4.1079
3.93866
3.56826
3.55939
4.04929
3.82338
3.46909
2.76821
2.47273
2.47822
2.58804
2.63613
2.60217
2.49581
2.37701
2.30108
2.26005
2.25537
2.25815
2.25884
2.26152
2.25274
2.24763
2.23174
2.21287
2.19682
2.19416
2.19978
2.22314
2.25241
2.29907
2.37035
2.45153
2.55917
2.68737
2.84
3.00307
3.19098
3.3404
3.51318
3.71661
3.88172
4.06075
4.21706
4.32564
4.4739
4.60526
4.69904
4.78174
4.84576
4.8799
4.90417
4.91643
4.91897
4.91493
4.89754
4.87716
4.84962
4.81658
4.78088
4.74203
4.69965
4.65561
4.61049
4.56436
4.51749
4.47048
4.42337
4.3766
4.33028
4.28464
4.23962
4.19519
4.15118
4.10759
4.06439
4.02175
3.97967
3.93836
3.89763
3.85743
3.81729
3.77731
3.73719
3.69723
3.65693
3.61672
3.57616
3.53572
3.49511
3.45466
3.4142
3.374
3.33353
3.29298
3.25165
3.20927
3.16372
3.11608
3.08854
4.93901
4.29779
4.00808
3.83923
3.87685
3.63395
3.12736
2.62484
2.52436
2.58148
2.67247
2.67108
2.67141
2.61208
2.45954
2.27583
2.22038
2.21211
2.23954
2.25041
2.25572
2.24188
2.23465
2.21338
2.20632
2.19598
2.19659
2.195
2.21271
2.2387
2.28872
2.37116
2.47493
2.58712
2.70449
2.83771
2.98922
3.1476
3.27097
3.44541
3.6545
3.83991
4.035
4.2102
4.32061
4.44794
4.56907
4.66885
4.74957
4.80616
4.84524
4.87554
4.88826
4.89001
4.88947
4.8748
4.85689
4.83193
4.80091
4.76765
4.73007
4.6883
4.64466
4.60064
4.55601
4.51036
4.46352
4.41626
4.36954
4.32371
4.27883
4.23456
4.19088
4.14733
4.10407
4.06109
4.01852
3.97659
3.9354
3.89481
3.85468
3.81464
3.77473
3.73467
3.69464
3.65438
3.61422
3.57386
3.53357
3.49318
3.45293
3.41266
3.37249
3.33223
3.29176
3.25072
3.20828
3.16225
3.11217
3.08239
5.32254
4.48179
4.10203
3.86984
3.85257
3.68009
3.28277
2.83257
2.63199
2.56702
2.60852
2.63881
2.60598
2.46979
2.30698
2.25363
2.24534
2.2464
2.2675
2.26097
2.27043
2.25514
2.2536
2.23625
2.22111
2.18668
2.1887
2.18747
2.21389
2.24249
2.28025
2.34745
2.41669
2.521
2.65319
2.80113
2.94904
3.12986
3.26852
3.42465
3.60634
3.79908
3.95107
4.11348
4.25057
4.37039
4.50583
4.61994
4.69266
4.76057
4.80232
4.83728
4.8611
4.86398
4.86428
4.85146
4.83409
4.81042
4.77881
4.74608
4.71139
4.67336
4.63232
4.58881
4.54383
4.49785
4.45166
4.40608
4.36057
4.31537
4.27113
4.22751
4.18437
4.14138
4.09862
4.05602
4.01374
3.97207
3.93118
3.89083
3.85079
3.81081
3.77075
3.73069
3.69065
3.65059
3.61051
3.57039
3.53026
3.49019
3.45014
3.4102
3.37019
3.33021
3.28986
3.24897
3.20655
3.16012
3.10808
3.07555
5.49998
4.71429
4.20904
3.95314
3.87895
3.73697
3.32117
2.85569
2.62438
2.55945
2.62477
2.65346
2.62098
2.54321
2.42052
2.31529
2.25193
2.22818
2.24465
2.25051
2.25769
2.24188
2.23547
2.20991
2.1989
2.19008
2.19675
2.19107
2.20318
2.22257
2.26951
2.34344
2.43214
2.51643
2.63385
2.75938
2.89731
3.04877
3.17069
3.31783
3.49623
3.68184
3.84817
4.01018
4.16384
4.2932
4.43716
4.54466
4.61917
4.6918
4.741
4.78731
4.80733
4.81131
4.81512
4.81026
4.79573
4.77625
4.74916
4.71985
4.68894
4.65132
4.60984
4.56873
4.52747
4.48477
4.44041
4.39442
4.34853
4.30457
4.26192
4.21966
4.17763
4.13559
4.0932
4.05069
4.00867
3.96733
3.92658
3.88628
3.84621
3.80608
3.76597
3.72588
3.68585
3.64588
3.60598
3.56617
3.52641
3.48673
3.44701
3.40735
3.36743
3.32744
3.28705
3.24616
3.20383
3.15732
3.10398
3.0693
5.65763
4.91717
4.40802
4.08342
3.96484
3.78912
3.43685
3.03186
2.76003
2.65553
2.65162
2.65806
2.62117
2.51265
2.37004
2.28311
2.24777
2.24415
2.26389
2.26133
2.26753
2.25251
2.25044
2.22675
2.22069
2.19162
2.19452
2.19466
2.21594
2.23946
2.26929
2.31009
2.37626
2.43643
2.52579
2.61867
2.74612
2.88221
3.03423
3.19962
3.37642
3.54233
3.71424
3.86484
4.0269
4.16975
4.29688
4.4216
4.52565
4.60502
4.68059
4.73418
4.74101
4.75841
4.77032
4.76222
4.74565
4.73329
4.71901
4.69109
4.66134
4.62876
4.59168
4.55283
4.51179
4.4686
4.42428
4.38006
4.33689
4.29461
4.25259
4.21078
4.16914
4.12732
4.08553
4.04406
4.00288
3.96188
3.92124
3.88101
3.84088
3.80071
3.7605
3.72034
3.6804
3.64069
3.60112
3.56168
3.52224
3.48285
3.44328
3.40361
3.3637
3.32368
3.28335
3.24246
3.20012
3.15343
3.09904
3.06274
5.78465
5.07849
4.57297
4.25368
4.07083
3.86366
3.57107
3.24043
2.92088
2.73595
2.67831
2.66144
2.63196
2.56737
2.44636
2.33248
2.2805
2.25296
2.25207
2.24942
2.25506
2.2443
2.23818
2.21943
2.21595
2.20499
2.22424
2.23812
2.2568
2.26507
2.29123
2.31074
2.33445
2.36442
2.42477
2.49111
2.58829
2.67741
2.80164
2.94993
3.09963
3.27467
3.45009
3.64885
3.86409
4.03143
4.17859
4.29879
4.38744
4.4859
4.5827
4.6586
4.69719
4.70106
4.70062
4.70008
4.69979
4.69003
4.67749
4.65471
4.62669
4.5989
4.56592
4.52914
4.49087
4.45044
4.40811
4.36612
4.32483
4.28301
4.2415
4.2007
4.16008
4.11945
4.07845
4.03702
3.99572
3.95503
3.91489
3.87505
3.83503
3.79453
3.75397
3.71391
3.67433
3.63496
3.59576
3.55664
3.51749
3.47819
3.4387
3.399
3.35906
3.3189
3.27839
3.23723
3.19468
3.14782
3.09279
3.05552
5.8733
5.21911
4.71166
4.40204
4.16755
3.97745
3.71363
3.41017
3.11485
2.87127
2.7455
2.70573
2.6659
2.61573
2.5184
2.39073
2.28924
2.24626
2.24166
2.25314
2.26685
2.25515
2.24672
2.23224
2.24463
2.25606
2.28576
2.34708
2.39601
2.40186
2.39229
2.3498
2.33108
2.33265
2.35413
2.3895
2.44262
2.49995
2.58632
2.68784
2.80217
2.93787
3.08712
3.29558
3.53807
3.78654
4.03066
4.18351
4.27151
4.35589
4.45006
4.55434
4.62261
4.65893
4.63872
4.63683
4.64133
4.63956
4.62955
4.6208
4.60173
4.57305
4.5412
4.50572
4.46859
4.43032
4.39039
4.34969
4.30966
4.27029
4.23118
4.19155
4.15076
4.10956
4.06902
4.02884
3.98889
3.94915
3.9095
3.86945
3.82859
3.7877
3.74745
3.70789
3.66867
3.6296
3.59068
3.55173
3.51261
3.47317
3.43343
3.39336
3.35305
3.3125
3.27169
3.2303
3.18761
3.14062
3.0852
3.04727
5.92979
5.33089
4.85203
4.53368
4.25989
4.07532
3.84154
3.56738
3.28249
3.02596
2.84565
2.75967
2.70529
2.64938
2.56999
2.46166
2.35091
2.27879
2.25487
2.2557
2.25918
2.26227
2.25295
2.26719
2.27278
2.37392
2.43521
2.61508
2.68595
2.66608
2.60568
2.49852
2.41369
2.3732
2.36446
2.37077
2.3892
2.41577
2.45807
2.50835
2.57569
2.64838
2.75687
2.91857
3.09722
3.32347
3.62786
3.94471
4.16292
4.27679
4.35451
4.4119
4.48387
4.5745
4.59452
4.6038
4.5833
4.57576
4.57631
4.57122
4.56187
4.53673
4.50591
4.47228
4.43738
4.40425
4.37078
4.33395
4.29424
4.25425
4.21521
4.17673
4.13797
4.09862
4.05894
4.01943
3.98017
3.94082
3.90114
3.86096
3.82029
3.77968
3.73974
3.70059
3.66185
3.62305
3.58417
3.5451
3.50577
3.46609
3.42608
3.38578
3.34527
3.30451
3.26343
3.2217
3.17868
3.13138
3.0756
3.03722
5.98285
5.42589
4.97463
4.63569
4.36177
4.17544
3.95686
3.69864
3.42747
3.16785
2.95732
2.82834
2.7593
2.69466
2.61996
2.52843
2.43632
2.34438
2.28739
2.26187
2.25042
2.26025
2.25918
2.30546
2.34368
2.55584
2.78893
3.1006
3.13415
3.06984
2.90079
2.71552
2.56808
2.47922
2.4278
2.39739
2.38688
2.38635
2.39894
2.41801
2.45017
2.48701
2.55001
2.63013
2.72492
2.89211
3.1287
3.39336
3.74363
4.10619
4.30419
4.34838
4.38314
4.41946
4.48481
4.52931
4.54547
4.53692
4.53554
4.52534
4.51424
4.49817
4.47091
4.44606
4.41831
4.38621
4.34948
4.31251
4.27694
4.24054
4.20296
4.1645
4.12586
4.08736
4.04853
4.00988
3.97112
3.93231
3.8931
3.85311
3.81253
3.77191
3.73235
3.69363
3.65502
3.6163
3.57739
3.53815
3.49854
3.45847
3.41802
3.37721
3.33619
3.29494
3.25346
3.21144
3.1682
3.12082
3.06487
3.02612
6.03101
5.51285
5.078
4.72739
4.46001
4.26185
4.05628
3.81289
3.55934
3.30517
3.08062
2.92006
2.82267
2.73817
2.67495
2.60087
2.50251
2.41363
2.33575
2.28266
2.2631
2.26842
2.29471
2.36425
2.53054
2.93388
3.4911
3.65574
3.59516
3.44744
3.2087
3.00041
2.83945
2.71229
2.60944
2.53273
2.47567
2.43125
2.40508
2.39979
2.40317
2.412
2.43197
2.45798
2.50846
2.59792
2.70498
2.87736
3.15927
3.49894
3.90978
4.26174
4.39823
4.37769
4.38377
4.41226
4.45744
4.47368
4.47714
4.47142
4.45733
4.45307
4.43395
4.41464
4.39068
4.36126
4.3259
4.29067
4.25758
4.22422
4.18852
4.15035
4.1115
4.07371
4.03656
3.99929
3.96161
3.92284
3.88275
3.84195
3.80149
3.76201
3.72328
3.68488
3.64648
3.60788
3.5688
3.52913
3.48896
3.44838
3.40748
3.36639
3.32516
3.28371
3.24199
3.19964
3.15608
3.10837
3.05205
3.01284
6.07349
5.59114
5.16934
4.81598
4.55079
4.33867
4.14605
3.92432
3.68198
3.43555
3.20787
3.02474
2.88839
2.78935
2.72446
2.64584
2.561
2.47292
2.38548
2.31569
2.27693
2.29352
2.34915
2.48788
2.84664
3.49782
4.20935
4.16613
4.02753
3.78941
3.53597
3.32521
3.14581
2.98588
2.85274
2.74323
2.65118
2.57213
2.50636
2.45524
2.4136
2.39101
2.39096
2.39378
2.40525
2.43018
2.46592
2.55981
2.70134
2.89805
3.22211
3.6462
4.11419
4.36529
4.38732
4.36384
4.3524
4.37487
4.40266
4.41844
4.4121
4.40507
4.39646
4.38265
4.36084
4.33014
4.30345
4.27349
4.23937
4.20463
4.16798
4.13137
4.09545
4.05942
4.02323
3.98616
3.94812
3.90928
3.86982
3.8299
3.79043
3.75192
3.71397
3.6762
3.63784
3.59874
3.55889
3.51851
3.47787
3.43711
3.39615
3.35491
3.31335
3.27137
3.22899
3.186
3.14201
3.09411
3.03785
2.99872
6.10711
5.65645
5.25223
4.90442
4.63421
4.41406
4.22549
4.02065
3.79266
3.55718
3.32802
3.13417
2.96576
2.84478
2.76084
2.6903
2.61886
2.52758
2.43675
2.3524
2.32679
2.35626
2.46373
2.74366
3.35563
4.18215
4.63346
4.58452
4.38943
4.11796
3.86498
3.63643
3.43029
3.25225
3.10061
2.96862
2.85402
2.75481
2.66602
2.58719
2.51659
2.45814
2.41653
2.39011
2.36716
2.36724
2.36966
2.40031
2.44239
2.53691
2.71599
2.973
3.34986
3.84689
4.26413
4.41273
4.35187
4.31339
4.3151
4.33877
4.35504
4.35112
4.35241
4.34158
4.32858
4.30621
4.28428
4.26043
4.22436
4.18425
4.1484
4.11637
4.08447
4.04976
4.01202
3.97257
3.93345
3.89542
3.85735
3.81884
3.78026
3.74191
3.70377
3.66557
3.62683
3.58745
3.54743
3.50689
3.46605
3.425
3.38363
3.34204
3.3
3.25752
3.2147
3.17147
3.12734
3.0794
3.02311
2.98387
6.16546
5.73457
5.34052
4.99862
4.7193
4.48887
4.30061
4.10177
3.88695
3.66558
3.43799
3.23271
3.05861
2.91342
2.81199
2.74172
2.66089
2.57755
2.48395
2.43017
2.4263
2.48736
2.70419
3.26022
4.15051
4.83505
4.87921
4.78221
4.58748
4.371
4.15576
3.93549
3.72591
3.53166
3.35933
3.20627
3.07485
2.95817
2.84581
2.74714
2.66542
2.58932
2.51619
2.44863
2.39342
2.35591
2.33733
2.33691
2.34101
2.37587
2.43302
2.54225
2.7458
3.08004
3.52764
4.07012
4.35848
4.37035
4.2991
4.25716
4.25587
4.27786
4.28752
4.29502
4.28457
4.27111
4.24477
4.22164
4.19726
4.16744
4.134
4.09861
4.06342
4.02882
3.9942
3.95867
3.92108
3.8818
3.84249
3.80499
3.76836
3.73154
3.69407
3.65562
3.6161
3.57575
3.53498
3.49392
3.45287
3.41168
3.37004
3.32795
3.28542
3.2425
3.19923
3.15559
3.11116
3.06323
3.0071
2.9678
6.22329
5.80665
5.41747
5.07683
4.78949
4.55649
4.36303
4.16951
3.96207
3.74807
3.53539
3.32451
3.14996
2.99078
2.87369
2.79059
2.71273
2.62766
2.55815
2.53762
2.572
2.73277
3.18059
3.99849
4.812
5.08098
4.9901
4.86842
4.73133
4.57709
4.39331
4.18509
3.97163
3.77044
3.58642
3.42501
3.28159
3.1467
3.02432
2.92017
2.82487
2.73076
2.63458
2.55529
2.48814
2.42716
2.38117
2.34215
2.31976
2.30772
2.31199
2.33562
2.4212
2.56318
2.82463
3.2215
3.75161
4.20944
4.36575
4.30022
4.20812
4.1914
4.20841
4.24405
4.23972
4.23067
4.21167
4.18773
4.16384
4.14
4.11432
4.08422
4.04954
4.01237
3.9747
3.93767
3.90194
3.86605
3.82908
3.79186
3.75472
3.71745
3.67981
3.64137
3.60172
3.56073
3.51911
3.47749
3.43625
3.39491
3.35338
3.31138
3.26842
3.22477
3.18091
3.13706
3.0927
3.04513
2.98948
2.95017
6.28392
5.88403
5.49808
5.15435
4.85849
4.6187
4.41791
4.22906
4.03158
3.82464
3.62552
3.4214
3.23608
3.07082
2.94231
2.84404
2.75279
2.68622
2.66084
2.68156
2.8172
3.19717
3.91973
4.7751
5.15108
5.11789
5.05316
4.97481
4.8742
4.73845
4.57149
4.38296
4.18665
3.99592
3.81104
3.64264
3.48303
3.33897
3.21151
3.09297
2.97929
2.86803
2.77502
2.6935
2.61325
2.54304
2.4723
2.40214
2.34514
2.30955
2.2846
2.26102
2.28229
2.32104
2.42945
2.61902
2.93856
3.38634
3.94606
4.26899
4.31849
4.23087
4.16469
4.13935
4.16257
4.18406
4.18266
4.16632
4.13999
4.114
4.08887
4.06517
4.03747
4.00188
3.9602
3.92108
3.88541
3.85095
3.8169
3.78152
3.74441
3.70545
3.66564
3.62595
3.58613
3.54517
3.50318
3.46134
3.42008
3.37856
3.33637
3.29344
3.24964
3.20532
3.16116
3.11722
3.07293
3.02569
2.97048
2.93097
6.33041
5.94577
5.56785
5.22036
4.91585
4.6712
4.46527
4.28082
4.0941
3.89965
3.70929
3.51675
3.32337
3.16015
3.02292
2.89846
2.8166
2.78454
2.80249
2.92386
3.26838
3.93832
4.8081
5.20652
5.17799
5.14787
5.11296
5.05979
4.97815
4.86182
4.7205
4.5571
4.38075
4.19618
4.01598
3.83983
3.67648
3.52572
3.38787
3.25453
3.13437
3.02625
2.92889
2.83035
2.74484
2.6562
2.57119
2.49837
2.4379
2.37542
2.31628
2.27339
2.24009
2.238
2.26645
2.32166
2.45432
2.68696
3.04488
3.5295
4.06923
4.31283
4.26687
4.13278
4.08812
4.09113
4.10982
4.10743
4.10214
4.09077
4.06247
4.02887
3.99663
3.96685
3.93384
3.90065
3.86628
3.83087
3.7956
3.76036
3.72505
3.68867
3.64969
3.6088
3.56687
3.52519
3.48358
3.44215
3.40069
3.35887
3.31624
3.27241
3.22774
3.1832
3.13901
3.09537
3.05133
3.00461
2.94988
2.91021
6.37386
6.01136
5.63909
5.28833
4.97572
4.7186
4.51211
4.32853
4.15162
3.96868
3.78519
3.60455
3.42135
3.2531
3.09684
2.95996
2.92017
2.92526
3.0329
3.35676
4.00429
4.88464
5.31705
5.27759
5.2352
5.21088
5.1809
5.13221
5.05869
4.95984
4.83901
4.69833
4.54475
4.37713
4.20389
4.03028
3.86389
3.70381
3.553
3.41813
3.29511
3.18164
3.06723
2.96171
2.86821
2.77162
2.68662
2.60746
2.53111
2.45689
2.38983
2.328
2.26863
2.23698
2.21846
2.21945
2.24245
2.32188
2.47764
2.76854
3.18456
3.74345
4.15091
4.27552
4.17381
4.05634
4.01471
4.03122
4.05103
4.05564
4.05194
4.0214
3.97565
3.93786
3.90936
3.8823
3.85365
3.81991
3.7838
3.74445
3.7044
3.66736
3.62961
3.58945
3.54755
3.50461
3.46231
3.42087
3.37954
3.33754
3.29453
3.25098
3.2055
3.15997
3.11588
3.07267
3.02869
2.98238
2.92808
2.88821
6.32609
6.00352
5.66837
5.34147
5.0462
4.78211
4.57423
4.39141
4.21466
4.04135
3.86505
3.69527
3.52032
3.34815
3.16545
3.07844
3.05778
3.15307
3.4545
4.08636
4.9807
5.46662
5.43506
5.3801
5.33395
5.28611
5.24051
5.18734
5.12194
5.03741
4.93281
4.81028
4.67083
4.52031
4.3616
4.19847
4.03465
3.87472
3.72364
3.58777
3.45354
3.32494
3.20421
3.09475
2.98649
2.89155
2.79663
2.70484
2.61862
2.54107
2.46413
2.39289
2.33108
2.27708
2.22553
2.1972
2.17095
2.18374
2.2357
2.35291
2.55594
2.88116
3.34287
3.91833
4.19846
4.1878
4.07146
3.99117
3.95997
3.97098
3.98417
3.97735
3.95739
3.92378
3.88716
3.85411
3.82634
3.79651
3.76283
3.72613
3.68491
3.6455
3.60701
3.56659
3.52566
3.48327
3.43904
3.39611
3.35535
3.31342
3.26908
3.22477
3.17984
3.13461
3.09029
3.04718
3.00321
2.95769
2.90433
2.86448
6.37068
6.06411
5.74269
5.42691
5.13674
4.8642
4.64787
4.46458
4.28346
4.11248
3.9461
3.77618
3.60765
3.41832
3.2789
3.23189
3.29391
3.56892
4.18424
5.10108
5.63552
5.61495
5.56123
5.49206
5.42673
5.36511
5.3065
5.24458
5.17783
5.10122
5.01107
4.90356
4.77847
4.64055
4.49157
4.33486
4.17258
4.01541
3.87094
3.72567
3.58384
3.44475
3.32156
3.20489
3.09481
2.99051
2.88622
2.79289
2.70378
2.62152
2.54243
2.46609
2.39574
2.32808
2.26999
2.22191
2.17914
2.15026
2.15343
2.1759
2.23028
2.3661
2.61658
3.00404
3.48879
3.97117
4.17898
4.11422
3.98883
3.91221
3.88353
3.90169
3.90944
3.90538
3.88009
3.83961
3.79802
3.76336
3.73106
3.70008
3.66422
3.62435
3.58461
3.5419
3.49841
3.45566
3.41272
3.36968
3.32891
3.28794
3.24306
3.19752
3.15238
3.10707
3.0627
3.02047
2.97715
2.93201
2.87882
2.83863
6.37653
6.1437
5.86586
5.55518
5.24841
4.96568
4.72714
4.5423
4.3577
4.18141
4.0189
3.85491
3.68274
3.51644
3.44018
3.47556
3.71982
4.30598
5.23945
5.81743
5.81004
5.76303
5.67632
5.59619
5.52528
5.45576
5.38089
5.30489
5.23109
5.15644
5.07494
4.98178
4.87338
4.74956
4.60868
4.46095
4.30443
4.15074
3.99808
3.84492
3.7005
3.56461
3.43765
3.31606
3.20105
3.08719
2.98436
2.88736
2.79813
2.71316
2.63286
2.55772
2.48174
2.4089
2.34719
2.2877
2.22799
2.17404
2.13375
2.1103
2.11297
2.14749
2.24859
2.41441
2.70715
3.13776
3.70812
4.05059
4.1002
4.00907
3.89921
3.84928
3.84453
3.84272
3.83839
3.81505
3.78033
3.73893
3.69981
3.66567
3.6347
3.59853
3.56146
3.5196
3.47107
3.42408
3.38083
3.3402
3.29902
3.2589
3.21469
3.16693
3.12086
3.07631
3.03249
2.99089
2.94853
2.90321
2.85
2.80989
6.33622
6.16669
5.90613
5.62748
5.33735
5.05972
4.79037
4.60101
4.4272
4.2456
4.07891
3.93177
3.76855
3.67662
3.6916
3.91728
4.48661
5.42828
6.03386
6.03726
5.98534
5.88388
5.78495
5.70688
5.62661
5.54298
5.45281
5.36791
5.28879
5.21234
5.13199
5.04425
4.94432
4.83248
4.70795
4.57279
4.42943
4.2798
4.12441
3.97589
3.83195
3.69607
3.56291
3.43479
3.31168
3.19993
3.09418
2.99088
2.8934
2.80278
2.71819
2.63897
2.56462
2.49437
2.42215
2.35083
2.28464
2.22038
2.16688
2.1223
2.09734
2.081
2.10548
2.14132
2.26953
2.49827
2.82535
3.2721
3.80587
4.04912
4.02846
3.91069
3.81265
3.76042
3.75939
3.75825
3.74656
3.72116
3.68392
3.64355
3.60258
3.56318
3.5264
3.48815
3.4407
3.39267
3.34916
3.30644
3.2642
3.22384
3.18249
3.1367
3.08984
3.04498
3.00088
2.95918
2.91822
2.87326
2.81982
2.77955
5.84677
6.20271
5.95111
5.69097
5.4191
5.15639
4.89143
4.66293
4.49417
4.31689
4.12286
3.99692
3.91486
3.9263
4.14172
4.71465
5.66638
6.2999
6.31188
6.23873
6.11044
5.99897
5.91821
5.83136
5.73951
5.63694
5.53389
5.44069
5.35499
5.27143
5.18771
5.10046
5.00699
4.90418
4.79138
4.66661
4.53321
4.39156
4.24573
4.09969
3.95329
3.81043
3.67516
3.54666
3.42344
3.30539
3.19096
3.08346
2.9813
2.88718
2.80163
2.72044
2.64518
2.57179
2.49686
2.42383
2.35907
2.29649
2.24212
2.18499
2.12932
2.08401
2.06102
2.06404
2.09476
2.15386
2.28597
2.55416
2.93102
3.43386
3.86471
3.984
3.90601
3.79453
3.71136
3.67953
3.68537
3.6793
3.65801
3.62671
3.57875
3.529
3.48278
3.44342
3.40177
3.35521
3.31432
3.27427
3.23031
3.18708
3.14526
3.10082
3.05473
3.01032
2.96728
2.92626
2.88633
2.84142
2.78725
2.74669
4.79508
5.99021
5.95018
5.73795
5.50923
5.25538
5.0055
4.74527
4.56169
4.38214
4.21197
4.11103
4.1477
4.37887
4.97111
5.96249
6.64541
6.64795
6.54239
6.36882
6.23154
6.14273
6.04955
5.94814
5.83921
5.72315
5.61443
5.51308
5.41836
5.32769
5.23934
5.15028
5.05821
4.96009
4.85457
4.73991
4.61705
4.48563
4.34909
4.20581
4.06321
3.92311
3.78643
3.65577
3.53034
3.40976
3.29515
3.18594
3.08188
2.98333
2.89278
2.81018
2.7317
2.6563
2.58479
2.51511
2.44548
2.37942
2.31278
2.24899
2.18831
2.13494
2.09372
2.06531
2.04407
2.03363
2.08166
2.17928
2.34168
2.67393
3.06244
3.57642
3.85634
3.87096
3.78607
3.68499
3.6267
3.60108
3.60359
3.58151
3.54738
3.5039
3.44891
3.39862
3.35476
3.31322
3.27575
3.24145
3.19999
3.15287
3.10524
3.05956
3.016
2.97592
2.9345
2.89162
2.8509
2.80694
2.75331
2.713
3.62348
5.36607
6.00406
5.8279
5.59307
5.35171
5.10757
4.85037
4.61744
4.44033
4.35499
4.36071
4.59769
5.23301
6.29984
7.04917
7.04144
6.90569
6.67057
6.49297
6.39241
6.2918
6.18241
6.06497
5.93993
5.81974
5.70542
5.59613
5.49152
5.39241
5.29774
5.20375
5.10953
5.01248
4.9113
4.80358
4.68843
4.56623
4.43623
4.30236
4.1647
4.0271
3.89151
3.75931
3.63111
3.50763
3.38862
3.27473
3.16682
3.06462
2.96828
2.87798
2.79127
2.71176
2.63873
2.57201
2.50004
2.42853
2.36053
2.29697
2.23828
2.18722
2.1415
2.09484
2.05233
2.02897
2.01577
2.02371
2.07728
2.1729
2.36114
2.70396
3.19602
3.66828
3.83306
3.78788
3.67066
3.58076
3.52201
3.49138
3.4775
3.45536
3.41586
3.3617
3.31239
3.26948
3.23269
3.20057
3.16434
3.11888
3.06862
3.01934
2.97552
2.93757
2.89862
2.85582
2.81335
2.77058
2.71853
2.67829
2.47013
4.15176
5.52776
5.80934
5.61208
5.39934
5.18124
4.94741
4.69764
4.57245
4.59459
4.83448
5.50906
6.67336
7.51289
7.5021
7.32089
7.03028
6.79817
6.66747
6.55731
6.43863
6.30948
6.17062
6.03736
5.9124
5.79106
5.67327
5.56058
5.45286
5.35045
5.25135
5.15327
5.05429
4.95339
4.84867
4.73921
4.62365
4.50287
4.37692
4.24747
4.11596
3.98402
3.85343
3.72517
3.60057
3.48004
3.3642
3.25485
3.15285
3.05526
2.96082
2.87031
2.78672
2.70754
2.63294
2.56078
2.49228
2.42542
2.36165
2.30137
2.24621
2.1937
2.14561
2.10153
2.05687
2.01049
1.98544
1.96981
1.94706
2.03714
2.20274
2.49676
2.86903
3.37706
3.68053
3.7123
3.64844
3.53606
3.45151
3.40156
3.38312
3.35348
3.31272
3.2714
3.22807
3.18787
3.1507
3.11628
3.07508
3.02889
2.98011
2.93196
2.89099
2.85689
2.81876
2.7753
2.73126
2.6802
2.64082
1.61025
2.89101
4.62024
5.63533
5.64877
5.47265
5.26605
5.02834
4.8573
4.83881
5.0888
5.81902
7.10218
8.05393
8.03881
7.80222
7.44992
7.16099
6.99604
6.87825
6.74724
6.60031
6.44121
6.29063
6.15383
6.02224
5.89227
5.76549
5.64344
5.52717
5.41569
5.30865
5.20439
5.10097
4.99759
4.89337
4.78654
4.67618
4.56129
4.44252
4.3203
4.19577
4.07005
3.94301
3.81712
3.69226
3.57064
3.45338
3.3417
3.23674
3.13752
3.04276
2.95204
2.863
2.77773
2.69593
2.62193
2.55151
2.48457
2.41882
2.35772
2.30122
2.24853
2.20168
2.15268
2.10351
2.05573
2.00367
1.95224
1.92434
1.92831
1.96009
2.03826
2.22836
2.53212
2.97277
3.4406
3.63582
3.60221
3.49994
3.38772
3.30739
3.2639
3.24943
3.22134
3.19221
3.1559
3.11396
3.07274
3.02704
2.97919
2.93032
2.88543
2.8456
2.81042
2.77504
2.73565
2.69048
2.63923
2.60069
1.13953
1.94585
3.54236
5.08791
5.68912
5.56716
5.32175
5.1491
5.11478
5.36333
6.16015
7.5889
8.64327
8.59705
8.29257
7.86408
7.52524
7.33728
7.21052
7.06814
6.90634
6.7273
6.55448
6.39983
6.25514
6.11398
5.97646
5.84257
5.71346
5.58927
5.47001
5.35516
5.24445
5.13651
5.0297
4.92313
4.81612
4.70774
4.59729
4.48439
4.36926
4.25176
4.13224
4.01111
3.88774
3.76382
3.64167
3.52346
3.41055
3.30335
3.20232
3.10593
3.01326
2.92472
2.84066
2.76164
2.68652
2.61411
2.54414
2.47657
2.41316
2.35435
2.30185
2.25121
2.20194
2.15423
2.10542
2.05665
2.00489
1.94542
1.89455
1.87496
1.86597
1.92914
2.06638
2.30985
2.6614
3.13167
3.41286
3.46768
3.42223
3.31882
3.23366
3.18035
3.15033
3.12541
3.09895
3.06542
3.02565
2.97318
2.91939
2.87076
2.83004
2.7949
2.76099
2.7283
2.69447
2.65187
2.60093
2.56318
1.03729
1.34559
2.48808
4.00558
5.23425
5.54974
5.38488
5.30672
5.59034
6.49048
8.12568
9.32093
9.21408
8.8083
8.31242
7.9328
7.73233
7.59514
7.44232
7.26923
7.0737
6.87855
6.70513
6.54076
6.38273
6.23099
6.08438
5.94234
5.80478
5.67155
5.54269
5.41858
5.29883
5.18311
5.07042
4.95988
4.85084
4.74252
4.63427
4.52562
4.41588
4.30479
4.1915
4.07584
3.95744
3.83804
3.72028
3.60526
3.4941
3.38719
3.28449
3.18603
3.0915
3.00155
2.91614
2.83555
2.75855
2.68438
2.61242
2.54263
2.47513
2.41269
2.35565
2.30215
2.25274
2.20157
2.15239
2.10207
2.04807
1.99098
1.92683
1.86938
1.83733
1.82242
1.86941
1.94872
2.0941
2.34726
2.72533
3.11964
3.32981
3.33425
3.27428
3.18425
3.11295
3.06293
3.03148
3.00335
2.96488
2.91563
2.8603
2.81224
2.77539
2.74332
2.71302
2.68188
2.64951
2.60851
2.55807
2.52322
1.01078
1.05275
1.54018
2.64125
4.16334
5.17323
5.35852
5.69759
6.7956
8.74509
10.1285
9.91472
9.35045
8.74133
8.31277
8.10126
7.96662
7.81491
7.63014
7.42588
7.20822
7.0105
6.82809
6.65188
6.48198
6.321
6.16768
6.01915
5.87455
5.73421
5.59818
5.46672
5.34006
5.2179
5.09992
4.98531
4.873
4.76299
4.65532
4.54961
4.44428
4.33822
4.23035
4.12008
4.00698
3.89311
3.78001
3.66867
3.55961
3.45298
3.34926
3.24902
3.1533
3.06197
2.97669
2.89571
2.81899
2.74525
2.67372
2.60326
2.53356
2.46736
2.40744
2.35129
2.29812
2.24523
2.19212
2.14004
2.08788
2.03084
1.97009
1.9082
1.85229
1.81474
1.79853
1.80052
1.84687
1.93819
2.12968
2.46848
2.85375
3.12412
3.2105
3.18183
3.10898
3.02718
2.9624
2.92281
2.88738
2.84618
2.79897
2.75567
2.72485