/*--------------------------------*- C++ -*----------------------------------*\
| =========                 |                                                 |
| \\      /  F ield         | OpenFOAM: The Open Source CFD Toolbox           |
|  \\    /   O peration     | Version:  v2106                                 |
|   \\  /    A nd           | Website:  www.openfoam.com                      |
|    \\/     M anipulation  |                                                 |
\*---------------------------------------------------------------------------*/
FoamFile
{
    version     2.0;
    format      ascii;
    arch        "LSB;label=32;scalar=64";
    class       surfaceScalarField;
    location    "7";
    object      phi;
}
// * * * * * * * * * * * * * * * * * * * * * * * * * * * * * * * * * * * * * //

dimensions      [1 0 -1 0 0 0 0];

oriented        oriented;

internalField   nonuniform List<scalar> 
10325
(
0.0084507
6.38595e-17
0.0084507
-8.72295e-16
0.0084507
5.74465e-15
0.0084507
-3.21326e-14
0.0084507
-1.49963e-13
0.0084507
-1.00439e-11
0.0084507
3.26797e-11
0.0084507
-3.63554e-10
0.00845064
4.21051e-09
0.00845044
-1.81284e-08
0.00844601
4.26706e-08
0.00842099
-2.49597e-07
0.00815401
-1.65164e-05
0.0072166
2.81838e-05
0.00631926
8.75898e-05
0.00685686
0.000940897
0.00690865
0.000514622
0.00630793
0.000602481
0.00559088
0.000654294
0.00490801
0.000728927
0.00410334
0.000808421
0.00319945
0.00090283
0.00220185
0.00100313
0.00115165
0.00105813
0.00115691
0.0084507
-1.23599e-16
0.0084507
3.11906e-15
0.0084507
6.17594e-15
0.0084507
1.69343e-13
0.0084507
4.14651e-12
0.0084507
-8.2694e-12
0.0084507
4.26292e-11
0.0084507
-1.75289e-10
0.00845065
3.62793e-09
0.00845025
-4.84025e-11
0.00844653
3.51554e-08
0.00841521
6.91276e-07
0.00815407
-1.46097e-05
0.00721803
5.47508e-05
0.00630122
0.000185862
0.00673196
0.00193311
0.00683289
0.00102497
0.00624243
0.00119622
0.00552831
0.00130372
0.00489291
0.00141441
0.00407671
0.00162733
0.00312213
0.00185411
0.00214591
0.00198912
0.0011125
0.00209979
0.0022755
0.0084507
-3.49655e-17
0.0084507
1.07602e-15
0.0084507
1.92825e-15
0.0084507
8.39934e-14
0.0084507
3.16794e-12
0.0084507
-8.70366e-13
0.0084507
3.01404e-11
0.0084507
5.4299e-11
0.00845066
8.6835e-10
0.00845029
1.1176e-08
0.00844691
3.90034e-08
0.00841834
1.12212e-06
0.00817138
-1.53406e-06
0.00724714
7.87597e-05
0.00630892
0.000290147
0.00656913
0.00296471
0.00676524
0.00156005
0.00616493
0.00179119
0.00544751
0.00195723
0.00477959
0.00212483
0.00392336
0.00248681
0.0030662
0.00271875
0.00216286
0.00290631
0.00111574
0.00316484
0.00340573
0.0084507
-5.35054e-17
0.0084507
2.69126e-16
0.0084507
4.17675e-15
0.0084507
3.94416e-15
0.0084507
1.06765e-13
0.0084507
1.13411e-12
0.0084507
2.17322e-11
0.0084507
8.38412e-11
0.00845066
1.5882e-09
0.00845034
9.79249e-09
0.00844736
1.02514e-07
0.0084223
1.07886e-06
0.00820795
5.71946e-06
0.00731955
9.78084e-05
0.00636295
0.000378559
0.00641489
0.00397107
0.00669275
0.00223485
0.00608405
0.00239064
0.00535466
0.00261683
0.00470974
0.00280965
0.00399755
0.0031975
0.00318582
0.00352985
0.00223821
0.00386838
0.0011548
0.00426222
0.00456958
0.0084507
-2.18141e-16
0.0084507
3.03631e-16
0.0084507
4.84581e-15
0.0084507
-6.07267e-15
0.0084507
4.10784e-13
0.0084507
4.77888e-13
0.0084507
2.73793e-11
0.0084507
1.49778e-11
0.00845067
2.10009e-09
0.0084504
4.4234e-10
0.00844799
1.49697e-07
0.0084273
5.23432e-07
0.00825293
9.96577e-06
0.00742464
0.000102741
0.00648717
0.000388106
0.00633557
0.00481376
0.00670391
0.00317096
0.00605739
0.00303605
0.00531912
0.00329549
0.00474111
0.00343351
0.00404523
0.00389399
0.00319801
0.00437746
0.00224621
0.00484078
0.00115974
0.00537231
0.0057489
0.0084507
-3.09323e-16
0.0084507
3.08672e-16
0.0084507
2.16686e-15
0.0084507
-1.44709e-14
0.0084507
4.07679e-13
0.0084507
1.08804e-13
0.0084507
2.90166e-11
0.0084507
1.90476e-11
0.00845068
2.27556e-09
0.00845046
-4.07453e-09
0.00844862
1.75144e-07
0.00843254
-6.79419e-07
0.00830132
1.02688e-05
0.0075578
9.07077e-05
0.00666631
0.000284152
0.00646168
0.00508115
0.00712099
0.00446315
0.00634898
0.0038015
0.00548658
0.0040877
0.00481763
0.00414784
0.00410395
0.00460201
0.00323775
0.00523125
0.00229126
0.00581293
0.00122503
0.00645567
0.00699239
0.0084507
-2.4549e-16
0.0084507
3.14988e-16
0.0084507
-3.49259e-15
0.0084507
-2.45169e-14
0.0084507
2.93146e-13
0.0084507
-5.33249e-13
0.0084507
3.44945e-11
0.0084507
6.81629e-11
0.00845068
2.23177e-09
0.00845052
3.7846e-09
0.00844914
1.59889e-07
0.00843575
-3.16448e-07
0.00833629
8.79299e-06
0.00767401
7.54267e-05
0.00675889
0.000174186
0.00671584
0.00458614
0.00758291
0.00600552
0.00669917
0.00467157
0.00580725
0.00492691
0.00509221
0.00492778
0.0043134
0.0053623
0.00346189
0.00609452
0.00254436
0.00677909
0.00143445
0.00760219
0.00845664
0.0084507
-3.78387e-17
0.0084507
5.07569e-16
0.0084507
2.04218e-15
0.0084507
3.67941e-14
0.0084507
-4.61153e-13
0.0084507
-2.03455e-13
0.0084507
2.56949e-11
0.0084507
5.58028e-11
0.00845069
1.40995e-09
0.00845056
6.85718e-09
0.00844977
9.30705e-08
0.00843879
6.58386e-07
0.00836615
6.5262e-06
0.00779313
5.99034e-05
0.00679851
0.000149418
0.00698221
0.00358714
0.00835125
0.00717289
0.00732343
0.0057021
0.00635805
0.00582689
0.00556796
0.00581776
0.00468016
0.0062361
0.00372982
0.00702828
0.00276052
0.00776504
0.00157565
0.0088203
0.0101194
0.0084507
9.90148e-17
0.0084507
1.35796e-17
0.0084507
6.79394e-15
0.0084507
2.27666e-14
0.0084507
-3.87695e-13
0.0084507
1.80682e-12
0.0084507
1.04926e-11
0.0084507
7.86102e-11
0.0084507
7.59164e-10
0.00845057
6.63608e-09
0.00845006
6.2032e-08
0.00844136
5.71073e-07
0.00838682
5.1968e-06
0.00789153
5.11084e-05
0.0068237
0.0002219
0.00697425
0.00255033
0.0088964
0.00785859
0.00800226
0.00660769
0.00713908
0.00665563
0.00616603
0.00688774
0.00529534
0.0071233
0.00450695
0.00784812
0.0034654
0.00885191
0.0023737
0.00996962
0.0126259
0.0084507
4.30699e-17
0.0084507
1.73554e-16
0.0084507
4.69538e-15
0.0084507
1.89279e-14
0.0084507
-3.96149e-13
0.0084507
1.81401e-12
0.0084507
-3.93464e-12
0.0084507
9.66704e-11
0.0084507
2.81003e-10
0.0084506
6.60406e-09
0.00845026
3.73439e-08
0.00844352
5.04513e-07
0.00840446
3.81115e-06
0.00800357
4.268e-05
0.00697859
0.000265543
0.00679535
0.00184938
0.00890774
0.00816361
0.00852531
0.00699324
0.00788878
0.00728721
0.00701927
0.00779863
0.00610557
0.00807212
0.0051629
0.00883256
0.00409652
0.00993113
0.00254774
0.0115425
0.0156911
0.0084507
8.69801e-17
0.0084507
2.66985e-17
0.0084507
4.47309e-15
0.0084507
2.35404e-14
0.0084507
1.38901e-13
0.0084507
1.84239e-12
0.0084507
-9.98017e-12
0.0084507
1.47236e-10
0.0084507
-3.89233e-10
0.00845062
7.15308e-09
0.00845042
-7.54515e-09
0.00844535
4.31485e-07
0.00841793
2.46837e-06
0.00811799
2.1077e-05
0.00718137
0.000266001
0.00671504
0.00141418
0.00865943
0.00812493
0.00873733
0.0072545
0.00847417
0.00761159
0.00774669
0.0085402
0.00705047
0.00885927
0.00623976
0.00973928
0.00569437
0.0106442
0.00544847
0.0121155
0.0132599
0.00858779
0.0084507
2.09251e-17
0.0084507
1.28098e-16
0.0084507
1.47514e-15
0.0084507
1.57044e-14
0.0084507
1.30298e-13
0.0084507
8.47265e-13
0.0084507
1.83873e-12
0.0084507
1.46018e-10
0.0084507
-9.43771e-10
0.00845066
6.72608e-09
0.00845031
-4.54816e-08
0.0084472
4.18938e-07
0.008424
-1.21041e-06
0.00821976
1.40745e-05
0.00738414
0.000230751
0.00674416
0.00110781
0.00812372
0.00794773
0.00872081
0.00763744
0.00870022
0.00774392
0.00834557
0.00881167
0.00783495
0.00937565
0.00741449
0.0102318
0.00743028
0.0106495
0.00778349
0.0115802
0.0118511
0.010104
0.0084507
-6.39679e-18
0.0084507
9.55182e-17
0.0084507
1.37965e-16
0.0084507
7.54599e-15
0.0084507
3.85212e-14
0.0084507
9.82618e-13
0.0084507
7.27567e-13
0.0084507
8.2837e-11
0.0084507
-6.8608e-10
0.00845068
3.79947e-09
0.00845047
-2.75795e-08
0.00844884
3.07593e-07
0.0084336
-2.65765e-06
0.00831229
1.79518e-05
0.00763037
0.000158524
0.00688442
0.000800252
0.00774622
0.00717832
0.00867358
0.00860424
0.00850677
0.00792299
0.00860535
0.00870041
0.00851599
0.00943758
0.00841971
0.0103429
0.00859135
0.010672
0.00906527
0.0110321
0.0110147
0.010545
0.0084507
-3.25261e-19
0.0084507
-4.30157e-17
0.0084507
1.0571e-17
0.0084507
2.86167e-15
0.0084507
-1.55258e-14
0.0084507
8.82422e-13
0.0084507
-2.83529e-12
0.0084507
3.33816e-11
0.0084507
6.27905e-11
0.00845069
1.88793e-09
0.00845062
5.54421e-09
0.00844972
1.5755e-07
0.00843813
2.27681e-07
0.0083699
1.04288e-05
0.00784586
9.83659e-05
0.00707859
0.000470308
0.00786823
0.00536585
0.00929429
0.00986857
0.00884436
0.00840073
0.00876806
0.00874628
0.00888169
0.00932238
0.0091364
0.0101312
0.00951043
0.0104821
0.00994613
0.0107018
0.0105048
0.01096
0.0084507
-4.87891e-18
0.0084507
-3.54534e-17
0.0084507
6.79795e-16
0.0084507
1.99805e-15
0.0084507
2.76152e-14
0.0084507
3.27614e-13
0.0084507
1.7669e-12
0.0084507
8.24175e-12
0.0084507
9.11133e-11
0.0084507
1.11228e-09
0.00845061
2.16471e-09
0.00845025
8.28428e-08
0.00844318
6.82011e-07
0.00840315
6.10471e-06
0.0080007
6.75622e-05
0.00705729
0.000406614
0.00772133
0.00356528
0.0100586
0.0104732
0.00945688
0.0090458
0.00922472
0.0090372
0.00921348
0.00933668
0.00949197
0.0099016
0.00996284
0.0101849
0.0104181
0.0103541
0.00995314
0.0113111
0.0084507
7.18284e-18
0.0084507
7.41323e-17
0.0084507
1.20645e-16
0.0084507
4.20437e-15
0.0084507
2.29256e-14
0.0084507
3.42952e-13
0.0084507
2.38e-12
0.0084507
-6.45113e-12
0.0084507
1.52234e-10
0.0084507
1.5692e-10
0.00845063
7.07663e-09
0.00845044
3.0687e-08
0.00844604
5.55092e-07
0.00842292
3.18481e-06
0.00815848
4.30721e-05
0.00729471
0.000351915
0.00742956
0.00225556
0.0102508
0.00949357
0.0102747
0.00977501
0.00988693
0.00958408
0.00965967
0.00956292
0.0097597
0.00979429
0.0101657
0.00985904
0.0106735
0.00994074
0.0095274
0.0113814
0.0084507
3.38813e-18
0.0084507
7.15573e-18
0.0084507
-6.88197e-17
0.0084507
2.05478e-15
0.0084507
2.85844e-15
0.0084507
1.32554e-13
0.0084507
1.06789e-12
0.0084507
-8.17846e-13
0.0084507
1.07694e-10
0.0084507
1.69653e-10
0.00845067
5.25743e-09
0.00845044
2.0174e-08
0.00844846
3.51222e-07
0.00843115
2.01003e-06
0.00829967
2.40217e-05
0.0076285
0.000228163
0.00734979
0.00133249
0.00926894
0.00794058
0.0104856
0.010386
0.0102739
0.00991058
0.0100628
0.00970746
0.0100664
0.00975322
0.0103245
0.00968499
0.0107693
0.0095977
0.00925001
0.0112872
0.0084507
-6.12574e-18
0.0084507
2.8379e-17
0.0084507
3.86572e-16
0.0084507
7.90112e-17
0.0084507
1.48365e-14
0.0084507
5.55808e-15
0.0084507
8.90517e-13
0.0084507
6.48511e-12
0.0084507
9.40838e-12
0.0084507
3.2817e-10
0.0084507
1.04154e-09
0.00845053
2.22176e-08
0.00845014
1.45942e-07
0.00843949
1.11024e-06
0.00838645
1.50863e-05
0.00799716
4.3011e-07
0.00733453
0.000902234
0.00856999
0.0055436
0.0108399
0.0109573
0.0106761
0.0100946
0.0105777
0.00990526
0.0105334
0.00980744
0.010665
0.00964467
0.0109337
0.00941889
0.00906478
0.0113066
0.0084507
-7.48099e-18
0.0084507
1.19533e-17
0.0084507
2.2508e-16
0.0084507
-6.26127e-18
0.0084507
6.46756e-15
0.0084507
-2.38783e-14
0.0084507
4.87945e-13
0.0084507
3.72947e-12
0.0084507
4.51967e-12
0.0084507
1.72497e-10
0.0084507
2.88601e-10
0.00845063
1.47233e-08
0.00845009
7.94759e-08
0.00844533
4.74896e-07
0.00840796
9.42225e-06
0.00812684
-5.14229e-05
0.00740528
0.000578431
0.0082542
0.00342706
0.0112451
0.0101901
0.0114045
0.0105985
0.0112177
0.0103223
0.0110397
0.01001
0.0110094
0.00971241
0.0111166
0.0093695
0.00894396
0.0113801
0.0084507
1.35525e-19
0.0084507
-8.94467e-19
0.0084507
5.96582e-17
0.0084507
1.23572e-16
0.0084507
6.75705e-15
0.0084507
3.11854e-14
0.0084507
7.50679e-14
0.0084507
1.64113e-12
0.0084507
5.97588e-12
0.0084507
1.70255e-10
0.0084507
8.91172e-10
0.00845071
3.64416e-09
0.00845028
5.90561e-08
0.00845002
3.58332e-07
0.00843009
4.07546e-06
0.00825391
3.03757e-05
0.00758648
0.000300061
0.00779933
0.00188263
0.0104097
0.00820423
0.0117661
0.0111321
0.0116096
0.0107056
0.0114392
0.0101366
0.0113731
0.00979254
0.011395
0.00939807
0.00892374
0.0115232
0.0084507
8.40257e-19
0.0084507
1.11131e-18
0.0084507
8.2047e-17
0.0084507
4.33329e-16
0.0084507
2.72503e-15
0.0084507
3.21086e-14
0.0084507
5.87958e-14
0.0084507
1.756e-12
0.0084507
7.68822e-12
0.0084507
5.13437e-11
0.0084507
5.94127e-10
0.0084507
3.35417e-10
0.00845056
1.60108e-08
0.00845013
1.10052e-07
0.00844149
1.54379e-06
0.00839527
1.14138e-05
0.00799283
0.000125663
0.00748504
0.00117341
0.00905485
0.00553449
0.0118848
0.0111363
0.0118544
0.0107821
0.0118829
0.0103139
0.0117973
0.00994229
0.0117538
0.00950608
0.0089995
0.0117636
0.0084507
1.35525e-19
0.0084507
1.11131e-18
0.0084507
3.25532e-17
0.0084507
1.73771e-16
0.0084507
6.45344e-16
0.0084507
8.42748e-15
0.0084507
5.19344e-14
0.0084507
5.45605e-13
0.0084507
4.69519e-12
0.0084507
6.96194e-12
0.0084507
2.54827e-10
0.0084507
8.61751e-10
0.00845064
8.14525e-10
0.00845018
8.56367e-08
0.00844639
6.17074e-07
0.00841491
6.53237e-06
0.00820063
5.15513e-05
0.00764867
0.000605232
0.00863103
0.00325634
0.0119833
0.00953253
0.0126329
0.0112389
0.0124968
0.010706
0.0123144
0.010198
0.0121664
0.00968662
0.00914839
0.0120795
0.0084507
4.33681e-19
0.0084507
-1.13841e-18
0.0084507
8.13152e-18
0.0084507
2.73219e-17
0.0084507
2.52484e-16
0.0084507
2.23722e-15
0.0084507
6.60867e-15
0.0084507
1.5042e-13
0.0084507
9.64889e-13
0.0084507
1.0688e-11
0.0084507
3.30152e-11
0.0084507
7.98103e-10
0.0084507
3.31419e-09
0.00845045
4.36107e-08
0.00844968
3.3478e-07
0.00843579
2.83431e-06
0.00835703
2.74603e-05
0.00790232
0.000227843
0.00802803
0.0017571
0.0103537
0.00711073
0.0126464
0.0114297
0.0126312
0.0108729
0.0125838
0.0103485
0.0124632
0.00986168
0.00929831
0.0123702
0.0084507
1.35525e-19
0.0084507
-1.13841e-18
0.0084507
1.87025e-18
0.0084507
9.89334e-18
0.0084507
3.18484e-17
0.0084507
6.1748e-16
0.0084507
-1.4869e-15
0.0084507
6.05682e-14
0.0084507
2.5406e-13
0.0084507
5.14313e-12
0.0084507
6.27975e-13
0.0084507
4.53806e-10
0.00845069
1.06513e-09
0.00845061
1.96912e-08
0.00844998
1.32905e-07
0.00844457
9.85962e-07
0.0084058
1.12324e-05
0.00815701
6.65804e-05
0.00768787
0.00097918
0.00924376
0.00431157
0.0126902
0.0103524
0.0130587
0.0111491
0.012988
0.0106816
0.0128501
0.0100606
0.00947795
0.012716
0.0084507
2.71051e-20
0.0084507
4.06576e-19
0.0084507
1.51788e-18
0.0084507
4.44523e-18
0.0084507
1.01048e-16
0.0084507
9.84103e-16
0.0084507
1.04319e-15
0.0084507
5.5086e-14
0.0084507
9.64493e-14
0.0084507
2.9129e-12
0.0084507
2.30724e-11
0.0084507
6.88836e-11
0.0084507
1.21831e-09
0.00845071
6.05366e-09
0.00845033
7.19948e-08
0.00844958
5.47061e-07
0.00843097
3.99712e-06
0.00832518
4.20342e-05
0.00789962
0.000355287
0.00859251
0.00226323
0.0116303
0.0078687
0.0133657
0.0114512
0.0132242
0.0109902
0.0131856
0.0102091
0.00969843
0.013045
0.0084507
-4.87891e-19
0.0084507
8.13152e-20
0.0084507
1.89735e-19
0.0084507
4.60786e-19
0.0084507
3.41795e-17
0.0084507
6.13496e-16
0.0084507
1.87079e-16
0.0084507
2.91374e-14
0.0084507
-1.90689e-14
0.0084507
1.1085e-12
0.0084507
1.15244e-11
0.0084507
9.05741e-12
0.0084507
4.76332e-10
0.00845069
1.60307e-09
0.0084506
2.58713e-08
0.0084499
1.95712e-07
0.00844395
8.02724e-07
0.00840701
1.51422e-05
0.00818263
8.36242e-05
0.00785189
0.0012604
0.00972
0.00486892
0.0132643
0.0104174
0.0136516
0.0111744
0.0135242
0.0106152
0.00992006
0.0133733
0.0084507
-1.35525e-19
0.0084507
1.89735e-19
0.0084507
-3.61112e-35
0.0084507
3.30682e-18
0.0084507
4.60786e-18
0.0084507
1.54716e-16
0.0084507
4.06305e-16
0.0084507
7.13034e-15
0.0084507
5.023e-14
0.0084507
3.94293e-13
0.0084507
2.27524e-12
0.0084507
1.23297e-11
0.0084507
1.89826e-10
0.0084507
1.85513e-09
0.00845072
8.22416e-09
0.00845028
9.58157e-08
0.00844946
6.36199e-07
0.00842934
5.46727e-06
0.00832548
4.79184e-05
0.00793706
0.000496119
0.00887128
0.00254721
0.0121822
0.00777406
0.0140108
0.0112569
0.0138561
0.0109598
0.0101951
0.0137204
0.0084507
2.98156e-19
0.0084507
1.24683e-18
0.0084507
1.30104e-18
0.0084507
3.33392e-18
0.0084507
-5.23128e-18
0.0084507
7.62736e-17
0.0084507
9.79306e-17
0.0084507
2.12336e-15
0.0084507
1.6212e-14
0.0084507
2.07816e-13
0.0084507
1.5177e-12
0.0084507
3.10037e-12
0.0084507
7.76236e-11
0.0084507
-1.25967e-10
0.00845069
2.86819e-09
0.00845059
3.13775e-08
0.00844986
1.483e-07
0.00844379
1.48543e-06
0.00840802
1.20736e-05
0.00821957
0.000155735
0.0085865
0.000498434
0.0105518
0.00508096
0.0140493
0.0102958
0.0144949
0.0111532
0.0108345
0.0141835
0.0084507
-2.98156e-19
0.0084507
-5.96311e-19
0.0084507
2.71051e-20
0.0084507
1.43657e-18
0.0084507
-2.6563e-18
0.0084507
1.74014e-17
0.0084507
8.87148e-17
0.0084507
-2.5064e-16
0.0084507
6.28672e-15
0.0084507
5.46724e-14
0.0084507
3.79503e-13
0.0084507
3.8276e-13
0.0084507
2.49133e-11
0.0084507
-7.22206e-10
0.0084507
2.13325e-09
0.00845067
1.17706e-08
0.00845043
5.76746e-08
0.00844846
8.21801e-07
0.00843446
3.27519e-06
0.00835148
6.9989e-05
0.00815666
-0.000256441
0.00905468
0.00262315
0.0122896
0.00781501
0.0143901
0.0113019
0.0111022
0.0142305
0.0084507
1.0842e-19
0.0084507
-6.77626e-19
0.0084507
-1.16552e-18
0.0084507
-1.49078e-18
0.0084507
-2.54788e-18
0.0084507
2.90024e-18
0.0084507
7.29126e-18
0.0084507
1.71656e-16
0.0084507
1.41009e-15
0.0084507
2.88344e-15
0.0084507
1.16175e-13
0.0084507
-6.14727e-13
0.0084507
4.53248e-12
0.0084507
5.21114e-11
0.00845071
4.38028e-10
0.00845068
4.67776e-09
0.00845073
2.7363e-08
0.00844947
2.90522e-07
0.00844912
1.92197e-06
0.00843327
1.99126e-05
0.00808346
9.56571e-05
0.0078531
0.000820241
0.0100509
0.00448401
0.0139973
0.00942493
0.0111918
0.0147341
0.0084507
1.89735e-19
0.0084507
2.43945e-19
0.0084507
-4.33681e-19
0.0084507
-2.43945e-19
0.0084507
-3.79471e-19
0.0084507
1.24683e-18
0.0084507
-7.86047e-19
0.0084507
5.17978e-17
0.0084507
1.62441e-16
0.0084507
4.71853e-15
0.0084507
1.59994e-14
0.0084507
1.09695e-13
0.0084507
4.68719e-13
0.0084507
2.31315e-11
0.0084507
1.05137e-10
0.0084507
1.84033e-09
0.00845071
6.62895e-09
0.00845044
1.20009e-07
0.00845033
5.4911e-07
0.00843868
7.41455e-06
0.00838961
2.71211e-05
0.00821343
4.65514e-05
0.00902066
0.00213643
0.0120229
0.00679273
0.0107939
0.0147872
0.0084507
-2.43945e-19
0.0084507
-4.60786e-19
0.0084507
-2.71051e-20
0.0084507
5.42101e-20
0.0084507
1.0842e-19
0.0084507
7.31836e-19
0.0084507
-2.41235e-18
0.0084507
1.82688e-17
0.0084507
7.68157e-17
0.0084507
1.41602e-15
0.0084507
4.98107e-15
0.0084507
1.25118e-13
0.0084507
6.61456e-13
0.0084507
6.82775e-12
0.0084507
5.09456e-11
0.0084507
4.38543e-10
0.00845069
3.16004e-09
0.00845073
3.02732e-08
0.00845019
2.06767e-07
0.00845278
1.7573e-06
0.00841698
1.3547e-05
0.00823361
9.52893e-05
0.00786487
0.00088682
0.00978699
0.00371071
0.00838332
0.013947
0.0084507
-5.69206e-19
0.0084507
-5.42101e-19
0.0084507
-1.00289e-18
0.0084507
-1.38236e-18
0.0084507
-1.89735e-18
0.0084507
-2.46656e-18
0.0084507
-2.03288e-18
0.0084507
3.30682e-18
0.0084507
-1.30104e-17
0.0084507
2.77176e-16
0.0084507
3.80344e-15
0.0084507
2.32526e-14
0.0084507
3.31687e-13
0.0084507
8.78125e-13
0.0084507
2.32828e-11
0.0084507
7.71492e-11
0.0084507
1.39411e-09
0.0084507
6.80092e-09
0.00845053
8.13491e-08
0.00845037
4.29295e-07
0.00844136
4.766e-06
0.00841319
2.62499e-05
0.00830574
0.000147015
0.00883246
0.00172871
0.00571148
0.0114115
0.0084507
-4.06576e-19
0.0084507
3.52366e-19
0.0084507
-1.35525e-19
0.0084507
-2.1684e-19
0.0084507
-5.42101e-19
0.0084507
-6.50521e-19
0.0084507
-3.79471e-19
0.0084507
4.55365e-18
0.0084507
-8.13152e-18
0.0084507
1.59134e-16
0.0084507
1.61627e-15
0.0084507
3.08699e-15
0.0084507
5.90809e-14
0.0084507
5.48554e-13
0.0084507
4.04776e-12
0.0084507
4.21789e-11
0.0084507
3.08097e-10
0.0084507
2.59528e-09
0.00845073
1.92238e-08
0.00845029
1.58045e-07
0.00845184
1.18081e-06
0.00843078
1.01752e-05
0.00837065
7.50568e-05
0.00800523
0.000684452
0.00287387
0.00967627
0.0084507
-1.0842e-19
0.0084507
3.79471e-19
0.0084507
9.48677e-19
0.0084507
7.04731e-19
0.0084507
1.27394e-18
0.0084507
1.97867e-18
0.0084507
2.71051e-18
0.0084507
4.09286e-18
0.0084507
4.8247e-18
0.0084507
1.20346e-17
0.0084507
3.84946e-16
0.0084507
1.62582e-15
0.0084507
2.13651e-14
0.0084507
1.93647e-13
0.0084507
8.90506e-13
0.0084507
1.94668e-11
0.0084507
6.50631e-11
0.0084507
9.2135e-10
0.00845069
4.99935e-09
0.00845063
3.32378e-10
0.00845018
2.16997e-07
0.00844671
3.04088e-06
0.00845539
7.86665e-06
0.00840243
0.000161954
0.00116125
0.00859307
0.0084507
4.60786e-19
0.0084507
2.1684e-19
0.0084507
3.25261e-19
0.0084507
8.13152e-19
0.0084507
1.73472e-18
0.0084507
1.78893e-18
0.0084507
2.38524e-18
0.0084507
4.63496e-18
0.0084507
1.0842e-18
0.0084507
1.27394e-17
0.0084507
1.85832e-16
0.0084507
1.27196e-15
0.0084507
6.7278e-15
0.0084507
8.8182e-14
0.0084507
2.7983e-13
0.0084507
5.02309e-12
0.0084507
3.80614e-11
0.0084507
2.74927e-10
0.0084507
2.3423e-09
0.00845068
-3.27003e-08
0.00845052
9.69482e-08
0.00844976
1.17433e-06
0.00844039
-4.5292e-07
0.00842779
4.94695e-05
0.000226982
0.00838739
0.0084507
1.0842e-19
0.0084507
4.06576e-19
0.0084507
-2.71051e-19
0.0084507
8.67362e-19
0.0084507
5.96311e-19
0.0084507
5.96311e-19
0.0084507
1.38236e-18
0.0084507
3.79471e-18
0.0084507
-5.14996e-19
0.0084507
1.38236e-17
0.0084507
7.31565e-17
0.0084507
2.32616e-16
0.0084507
2.23739e-15
0.0084507
1.62676e-14
0.0084507
-2.00404e-14
0.0084507
1.13465e-12
0.0084507
1.04183e-11
0.0084507
4.09115e-11
0.00845071
8.49607e-10
0.00845066
1.03379e-09
0.00845045
3.77512e-08
0.00845163
2.60302e-07
0.00844999
1.24352e-06
0.00843663
9.57786e-06
8.51587e-05
0.0084549
0.0084507
-2.43945e-19
0.0084507
5.42101e-20
0.0084507
-1.0842e-19
0.0084507
9.21572e-19
0.0084507
1.02999e-18
0.0084507
9.21572e-19
0.0084507
1.11131e-18
0.0084507
1.70762e-18
0.0084507
1.24683e-18
0.0084507
7.07442e-18
0.0084507
6.88468e-18
0.0084507
-8.24536e-17
0.0084507
1.40266e-15
0.0084507
-2.8988e-15
0.0084507
6.24886e-14
0.0084507
4.61805e-13
0.0084507
4.20068e-12
0.0084507
1.99776e-11
0.0084507
5.09174e-10
0.0084507
-6.39425e-10
0.0084507
1.09612e-08
0.00845063
6.98481e-08
0.0084501
3.10896e-07
0.00844843
6.1526e-07
-1.21126e-05
0.00845178
0.0084507
4.06576e-19
0.0084507
6.23416e-19
0.0084507
7.86047e-19
0.0084507
1.0842e-19
0.0084507
3.52366e-19
0.0084507
4.06576e-19
0.0084507
-9.75782e-19
0.0084507
-9.48677e-19
0.0084507
-2.84603e-18
0.0084507
-1.0571e-18
0.0084507
-1.32815e-17
0.0084507
3.44234e-17
0.0084507
3.32471e-16
0.0084507
1.57811e-15
0.0084507
1.10492e-14
0.0084507
4.59235e-14
0.0084507
9.95799e-13
0.0084507
-2.78948e-12
0.0084507
5.92197e-11
0.0084507
3.72137e-10
0.0084507
2.21933e-09
0.00845072
-1.68384e-09
0.00845061
1.42465e-07
0.0084482
8.66856e-07
-1.98466e-05
0.00843664
0.0084507
8.13152e-20
0.0084507
1.89735e-19
0.0084507
3.25261e-19
0.0084507
-5.69206e-19
0.0084507
-1.43657e-18
0.0084507
-1.16552e-18
0.0084507
-2.08709e-18
0.0084507
-1.68051e-18
0.0084507
-2.41235e-18
0.0084507
-2.60209e-18
0.0084507
3.52366e-19
0.0084507
1.3417e-17
0.0084507
9.62772e-17
0.0084507
4.2479e-16
0.0084507
6.63003e-15
0.0084507
-3.74295e-14
0.0084507
3.18133e-13
0.0084507
8.22838e-13
0.0084507
1.44756e-11
0.0084507
8.81434e-11
0.0084507
-4.46199e-11
0.0084507
4.97554e-09
0.00845077
2.43829e-08
0.00845114
1.12258e-07
7.96166e-07
0.00843984
0.0084507
-3.79471e-19
0.0084507
-6.50521e-19
0.0084507
-5.42101e-19
0.0084507
-2.1684e-19
0.0084507
-1.89735e-19
0.0084507
-2.71051e-20
0.0084507
-1.6263e-19
0.0084507
-2.1684e-19
0.0084507
5.42101e-20
0.0084507
-1.89735e-19
0.0084507
9.21572e-19
0.0084507
4.60786e-18
0.0084507
2.29309e-17
0.0084507
1.38832e-16
0.0084507
1.67946e-15
0.0084507
8.50614e-15
0.0084507
8.40438e-14
0.0084507
2.37576e-13
0.0084507
2.94224e-12
0.0084507
2.00047e-11
0.0084507
2.79382e-11
0.00845071
8.14615e-10
0.00845071
6.64988e-09
0.00845086
3.39748e-08
5.44023e-08
0.00845173
0.0084507
4.06576e-19
0.0084507
4.60786e-19
0.0084507
5.96311e-19
0.0084507
7.58942e-19
0.0084507
7.86047e-19
0.0084507
6.77626e-19
0.0084507
8.13152e-19
0.0084507
8.13152e-19
0.0084507
1.13841e-18
0.0084507
1.19262e-18
0.0084507
-2.71051e-20
0.0084507
1.6263e-18
0.0084507
8.21283e-18
0.0084507
6.23687e-17
0.0084507
5.18764e-16
0.0084507
7.94043e-16
0.0084507
2.10235e-14
0.0084507
1.05054e-13
0.0084507
2.91222e-13
0.0084507
5.41616e-12
0.0084507
1.66021e-11
0.0084507
1.3972e-10
0.0084507
7.99575e-10
0.0084507
3.69638e-09
5.36149e-08
0.00845055
0.0084507
1.0842e-19
0.0084507
-1.0842e-19
0.0084507
-5.14996e-19
0.0084507
-1.32815e-18
0.0084507
-9.75782e-19
0.0084507
-7.58942e-19
0.0084507
-5.96311e-19
0.0084507
6.77626e-19
0.0084507
-1.00289e-18
0.0084507
5.14996e-19
0.0084507
-1.73472e-18
0.0084507
1.16552e-18
0.0084507
-2.60209e-18
0.0084507
1.20889e-17
0.0084507
6.18537e-17
0.0084507
5.00739e-16
0.0084507
5.7512e-15
0.0084507
1.55408e-14
0.0084507
6.25638e-14
0.0084507
1.17466e-12
0.0084507
-6.69992e-13
0.0084507
8.51936e-11
0.0084507
8.85523e-12
0.0084507
1.67722e-09
6.40615e-09
0.0084507
0.0084507
-4.06576e-19
0.0084507
-9.75782e-19
0.0084507
-8.40257e-19
0.0084507
-1.32815e-18
0.0084507
-1.43657e-18
0.0084507
-1.24683e-18
0.0084507
-1.51788e-18
0.0084507
-1.32815e-18
0.0084507
-3.33392e-18
0.0084507
-1.92446e-18
0.0084507
-3.57787e-18
0.0084507
-1.49078e-18
0.0084507
-6.01732e-18
0.0084507
4.60786e-19
0.0084507
3.65918e-18
0.0084507
1.81604e-16
0.0084507
1.22054e-15
0.0084507
9.56836e-15
0.0084507
4.00948e-14
0.0084507
3.06967e-13
0.0084507
1.88309e-12
0.0084507
9.68666e-12
0.0084507
3.4993e-11
0.0084507
4.90966e-12
9.38557e-10
0.00845065
0.0084507
-1.35525e-19
0.0084507
-2.71051e-19
0.0084507
-1.6263e-19
0.0084507
-2.71051e-20
0.0084507
1.0842e-19
0.0084507
-3.79471e-19
0.0084507
-1.89735e-19
0.0084507
-1.02999e-18
0.0084507
-1.16552e-18
0.0084507
-1.92446e-18
0.0084507
-2.1413e-18
0.0084507
-2.52077e-18
0.0084507
-3.14419e-18
0.0084507
-2.11419e-18
0.0084507
-1.72659e-17
0.0084507
3.75947e-17
0.0084507
2.31071e-16
0.0084507
2.04817e-15
0.0084507
-2.24652e-15
0.0084507
2.81259e-14
0.0084507
-3.21419e-13
0.0084507
8.11528e-12
0.0084507
-2.4869e-11
0.0084507
2.01399e-10
-3.61052e-10
0.00845066
0.0084507
2.43945e-19
0.0084507
1.89735e-19
0.0084507
1.6263e-19
0.0084507
1.35525e-19
0.0084507
1.89735e-19
0.0084507
-5.96311e-19
0.0084507
-9.48677e-19
0.0084507
-1.24683e-18
0.0084507
-1.5992e-18
0.0084507
-1.97867e-18
0.0084507
-2.33103e-18
0.0084507
-2.60209e-18
0.0084507
-2.71051e-18
0.0084507
-2.87314e-18
0.0084507
6.12574e-18
0.0084507
4.17689e-17
0.0084507
-1.632e-16
0.0084507
1.73405e-15
0.0084507
8.21831e-15
0.0084507
-2.13744e-14
0.0084507
4.80975e-13
0.0084507
-4.73032e-12
0.0084507
3.18303e-11
0.0084507
-2.02666e-10
1.27381e-09
0.00845064
0.0084507
1.89735e-19
0.0084507
5.96311e-19
0.0084507
5.42101e-19
0.0084507
5.42101e-19
0.0084507
7.31836e-19
0.0084507
2.71051e-19
0.0084507
-3.79471e-19
0.0084507
-5.69206e-19
0.0084507
-7.58942e-19
0.0084507
-9.21572e-19
0.0084507
-9.48677e-19
0.0084507
-9.21572e-19
0.0084507
-1.02999e-18
0.0084507
-2.52077e-18
0.0084507
2.11419e-18
0.0084507
4.79759e-18
0.0084507
2.84332e-17
0.0084507
-6.58761e-16
0.0084507
-1.49511e-15
0.0084507
-9.27926e-14
0.0084507
-1.86937e-13
0.0084507
1.72837e-12
0.0084507
2.50819e-12
0.0084507
-3.94114e-11
7.46219e-10
0.00845066
0.0084507
7.52316e-36
0.0084507
2.43945e-19
0.0084507
1.89735e-19
0.0084507
5.42101e-20
0.0084507
1.0842e-19
0.0084507
2.71051e-20
0.0084507
5.42101e-19
0.0084507
8.40257e-19
0.0084507
7.86047e-19
0.0084507
-1.35525e-19
0.0084507
-3.79471e-19
0.0084507
-8.13152e-19
0.0084507
-8.94467e-19
0.0084507
-6.50521e-19
0.0084507
-5.42101e-19
0.0084507
-1.08691e-17
0.0084507
-7.88757e-17
0.0084507
1.76814e-15
0.0084507
-4.10492e-15
0.0084507
1.47319e-13
0.0084507
1.94269e-12
0.0084507
-8.23455e-12
0.0084507
3.68685e-11
0.0084507
-1.91636e-10
6.68354e-10
0.00845065
0.0084507
-3.52366e-19
0.0084507
-7.58942e-19
0.0084507
-1.68051e-18
0.0084507
-2.03288e-18
0.0084507
-2.41235e-18
0.0084507
-2.62919e-18
0.0084507
-2.08709e-18
0.0084507
-2.27682e-18
0.0084507
-1.89735e-18
0.0084507
-1.6263e-18
0.0084507
-1.21973e-18
0.0084507
-6.23416e-19
0.0084507
1.6263e-19
0.0084507
2.1413e-18
0.0084507
5.52943e-18
0.0084507
4.11997e-18
0.0084507
8.50557e-17
0.0084507
-1.99293e-15
0.0084507
-7.26985e-15
0.0084507
1.57774e-13
0.0084507
1.27633e-12
0.0084507
-5.59838e-12
0.0084507
2.61008e-11
0.0084507
-1.23565e-10
2.4624e-10
0.00845065
0.0084507
0.0084507
0.0084507
0.0084507
0.0084507
0.0084507
0.0084507
0.0084507
0.0084507
0.0084507
0.0084507
0.0084507
0.0084507
0.0084507
0.0084507
0.0084507
0.0084507
0.0084507
0.0084507
0.0084507
0.0084507
0.0084507
0.0084507
0.0084507
0.00845065
0.0028701
0.00434105
-8.94588e-05
0.00295849
-0.00147309
0.00138959
-0.00137755
-9.4183e-05
-0.00107873
-0.000278222
-0.00153649
0.000514848
-0.00247861
0.000982022
-0.00311142
0.000533265
-0.00345334
0.000341024
-0.00352953
7.29602e-05
-0.00351283
-9.95025e-06
-0.00349712
-8.97223e-06
-0.00346448
1.88617e-05
-0.00346172
2.15828e-05
-0.00354968
4.56988e-05
-0.00363726
6.33737e-05
-0.00368473
4.27159e-05
-0.0037098
2.30042e-05
-0.00370877
2.55758e-06
-0.003703
-3.87708e-06
-0.00369548
-2.73394e-06
-0.00369584
1.87003e-06
-0.00368917
-3.67543e-06
-0.003696
5.58731e-06
-0.00370315
1.56041e-06
-0.00371136
8.8191e-06
-0.00371923
5.81376e-06
-0.00373271
2.24322e-06
-0.00373551
-4.19679e-06
-0.00374729
-5.00618e-06
-0.0037503
-1.39475e-05
-0.00373253
-2.58768e-05
-0.00369848
-4.04309e-05
-0.00364376
-5.87168e-05
-0.00357689
-7.4217e-05
-0.00347608
-9.86291e-05
-0.00333079
-0.0001175
-0.00316466
-0.000158727
-0.00303531
-0.000147659
-0.00280073
-0.000211979
-0.00253431
-0.000252096
-0.00226572
-0.000259525
-0.00195977
-0.000286067
-0.00168285
-0.000272828
-0.00136952
-0.000306388
-0.000961251
-0.000396825
-0.000565943
-0.000390091
-0.000157274
-0.000404194
0.000250025
-0.000408002
0.000623668
-0.000375222
0.000975682
-0.000349841
0.00131315
-0.000335075
0.00163585
-0.000320654
0.00194266
-0.000303876
0.00223012
-0.000286785
0.00249701
-0.000263738
0.00274757
-0.000247829
0.00297841
-0.000228784
0.00318986
-0.000210304
0.00338395
-0.000193414
0.00355989
-0.000176886
0.00372043
-0.000161535
0.00386988
-0.000149383
0.00400896
-0.000138
0.00413701
-0.000127247
0.00425402
-0.000116418
0.00436144
-0.000106907
0.00446004
-9.79427e-05
0.00455089
-8.99031e-05
0.00463412
-8.22572e-05
0.00471113
-7.58702e-05
0.00478217
-6.99049e-05
0.00484862
-6.51558e-05
0.00491037
-6.06086e-05
0.00496832