/*--------------------------------*- C++ -*----------------------------------*\
| =========                 |                                                 |
| \\      /  F ield         | OpenFOAM: The Open Source CFD Toolbox           |
|  \\    /   O peration     | Version:  v2106                                 |
|   \\  /    A nd           | Website:  www.openfoam.com                      |
|    \\/     M anipulation  |                                                 |
\*---------------------------------------------------------------------------*/
FoamFile
{
    version     2.0;
    format      ascii;
    arch        "LSB;label=32;scalar=64";
    class       volScalarField;
    location    "7";
    object      psi;
}
// * * * * * * * * * * * * * * * * * * * * * * * * * * * * * * * * * * * * * //

dimensions      [0 -2 2 0 0 0 0];

internalField   nonuniform List<scalar> 
5250
(
1.40845
1.40845
1.40845
1.40845
1.40845
1.40845
1.40845
1.40845
1.40843
1.40824
1.4066
1.39133
1.28264
0.965147
0.518558
0.518818
0.553083
0.559376
0.549691
0.551892
0.551145
0.549028
0.548963
0.549633
0.551111
1.40845
1.40845
1.40845
1.40845
1.40845
1.40845
1.40845
1.40845
1.40843
1.40823
1.40653
1.39131
1.28732
0.97141
0.52536
0.518487
0.555761
0.5618
0.551355
0.553553
0.55256
0.549795
0.549929
0.550507
0.551911
1.40845
1.40845
1.40845
1.40845
1.40845
1.40845
1.40845
1.40845
1.40843
1.40825
1.40668
1.39284
1.29567
0.984963
0.544091
0.51794
0.563351
0.56848
0.556517
0.55766
0.555884
0.552477
0.55227
0.552872
0.554297
1.40845
1.40845
1.40845
1.40845
1.40845
1.40845
1.40845
1.40845
1.40843
1.40827
1.40689
1.39471
1.30661
1.00722
0.578438
0.516198
0.576115
0.579208
0.565185
0.564131
0.560963
0.556239
0.555141
0.555543
0.556801
1.40845
1.40845
1.40845
1.40845
1.40845
1.40845
1.40845
1.40845
1.40843
1.4083
1.40715
1.39712
1.32132
1.03923
0.636647
0.51219
0.593626
0.594732
0.578411
0.574733
0.569014
0.561476
0.558932
0.559266
0.560508
1.40845
1.40845
1.40845
1.40845
1.40845
1.40845
1.40845
1.40845
1.40844
1.40834
1.40742
1.39961
1.33767
1.07942
0.705451
0.499245
0.616526
0.618827
0.599207
0.59006
0.579599
0.567788
0.56369
0.563387
0.564732
1.40845
1.40845
1.40845
1.40845
1.40845
1.40845
1.40845
1.40845
1.40844
1.40836
1.40767
1.40175
1.3515
1.11824
0.741232
0.476146
0.608068
0.625619
0.6146
0.608944
0.595681
0.578566
0.571444
0.568835
0.570875
1.40845
1.40845
1.40845
1.40845
1.40845
1.40845
1.40845
1.40845
1.40844
1.40839
1.4079
1.40349
1.36393
1.15939
0.78398
0.452623
0.577814
0.61608
0.611516
0.616651
0.611106
0.593872
0.58043
0.575934
0.581036
1.40845
1.40845
1.40845
1.40845
1.40845
1.40845
1.40845
1.40845
1.40845
1.4084
1.40801
1.4045
1.37311
1.19468
0.829249
0.453098
0.555743
0.597162
0.602803
0.615604
0.617494
0.612041
0.596147
0.586404
0.596893
1.40845
1.40845
1.40845
1.40845
1.40845
1.40845
1.40845
1.40845
1.40845
1.40842
1.40812
1.40551
1.38177
1.23275
0.879184
0.468545
0.557427
0.572461
0.584493
0.60473
0.618347
0.621857
0.612993
0.601328
0.637508
1.40845
1.40845
1.40845
1.40845
1.40845
1.40845
1.40845
1.40845
1.40845
1.40843
1.40821
1.4063
1.38877
1.2685
0.93741
0.498151
0.552155
0.573395
0.583375
0.59499
0.613874
0.634487
0.639783
0.644999
0.720086
1.40845
1.40845
1.40845
1.40845
1.40845
1.40845
1.40845
1.40845
1.40845
1.40843
1.40826
1.40674
1.39381
1.30484
1.00379
0.536507
0.543175
0.582836
0.592279
0.593829
0.60492
0.630546
0.650385
0.662485
0.779289
1.40845
1.40845
1.40845
1.40845
1.40845
1.40845
1.40845
1.40845
1.40845
1.40844
1.40835
1.40749
1.40033
1.34189
1.08678
0.672503
0.525519
0.609025
0.606851
0.60049
0.604754
0.622014
0.655474
0.672821
0.778562
1.40845
1.40845
1.40845
1.40845
1.40845
1.40845
1.40845
1.40845
1.40845
1.40845
1.4084
1.40794
1.40398
1.3653
1.16214
0.785333
0.491496
0.614263
0.623296
0.613327
0.610682
0.622042
0.651213
0.681354
0.771605
1.40845
1.40845
1.40845
1.40845
1.40845
1.40845
1.40845
1.40845
1.40845
1.40845
1.40841
1.40808
1.40531
1.38004
1.22427
0.868124
0.483867
0.613651
0.624498
0.624963
0.621347
0.627299
0.649707
0.680038
0.751707
1.40845
1.40845
1.40845
1.40845
1.40845
1.40845
1.40845
1.40845
1.40845
1.40845
1.40843
1.40823
1.40653
1.39092
1.28131
0.956961
0.503768
0.584659
0.634599
0.642438
0.636664
0.637098
0.650718
0.675767
0.726502
1.40845
1.40845
1.40845
1.40845
1.40845
1.40845
1.40845
1.40845
1.40845
1.40845
1.40844
1.40832
1.4073
1.39855
1.3312
1.05933
0.561686
0.547566
0.631942
0.65501
0.651163
0.647645
0.656022
0.675542
0.712884
1.40845
1.40845
1.40845
1.40845
1.40845
1.40845
1.40845
1.40845
1.40845
1.40845
1.40844
1.40839
1.40789
1.40367
1.36636
1.16627
0.782067
0.502171
0.629027
0.645434
0.659048
0.65927
0.665363
0.679327
0.707146
1.40845
1.40845
1.40845
1.40845
1.40845
1.40845
1.40845
1.40845
1.40845
1.40845
1.40845
1.40841
1.40812
1.40566
1.38488
1.25672
0.915629
0.509537
0.607204
0.646204
0.669714
0.672305
0.676894
0.686465
0.70769
1.40845
1.40845
1.40845
1.40845
1.40845
1.40845
1.40845
1.40845
1.40845
1.40845
1.40845
1.40844
1.40834
1.40741
1.3995
1.33554
1.03975
0.543679
0.563056
0.647295
0.681133
0.682751
0.68674
0.694796
0.710953
1.40845
1.40845
1.40845
1.40845
1.40845
1.40845
1.40845
1.40845
1.40845
1.40845
1.40845
1.40844
1.40839
1.40788
1.40361
1.36769
1.17164
0.76344
0.50984
0.639542
0.661337
0.686219
0.694588
0.703979
0.717303
1.40845
1.40845
1.40845
1.40845
1.40845
1.40845
1.40845
1.40845
1.40845
1.40845
1.40845
1.40845
1.40842
1.40817
1.40607
1.38862
1.27098
0.933581
0.524573
0.60046
0.663945
0.692565
0.704951
0.714282
0.725862
1.40845
1.40845
1.40845
1.40845
1.40845
1.40845
1.40845
1.40845
1.40845
1.40845
1.40845
1.40845
1.40844
1.40835
1.40757
1.40081
1.34486
1.0866
0.604334
0.548726
0.65787
0.686539
0.705301
0.717999
0.731628
1.40845
1.40845
1.40845
1.40845
1.40845
1.40845
1.40845
1.40845
1.40845
1.40845
1.40845
1.40845
1.40844
1.4084
1.408
1.40477
1.37886
1.22469
0.8433
0.524806
0.632042
0.675518
0.706814
0.720169
0.734129
1.40845
1.40845
1.40845
1.40845
1.40845
1.40845
1.40845
1.40845
1.40845
1.40845
1.40845
1.40845
1.40845
1.40843
1.40831
1.40722
1.39797
1.32461
1.02481
0.559659
0.581757
0.673226
0.700984
0.718891
0.734371
1.40845
1.40845
1.40845
1.40845
1.40845
1.40845
1.40845
1.40845
1.40845
1.40845
1.40845
1.40845
1.40845
1.40844
1.40838
1.40788
1.40399
1.37324
1.19963
0.789879
0.530257
0.647225
0.689091
0.719724
0.734233
1.40845
1.40845
1.40845
1.40845
1.40845
1.40845
1.40845
1.40845
1.40845
1.40845
1.40845
1.40845
1.40845
1.40845
1.40843
1.4083
1.4071
1.39682
1.31622
1.00089
0.557698
0.589173
0.681179
0.711398
0.733049
1.40845
1.40845
1.40845
1.40845
1.40845
1.40845
1.40845
1.40845
1.40845
1.40845
1.40845
1.40845
1.40845
1.40845
1.40844
1.40837
1.4078
1.40348
1.3703
1.17864
0.755889
0.541001
0.65409
0.694725
0.733398
1.40845
1.40845
1.40845
1.40845
1.40845
1.40845
1.40845
1.40845
1.40845
1.40845
1.40845
1.40845
1.40845
1.40845
1.40845
1.40843
1.40828
1.40702
1.39699
1.32231
1.04637
0.578632
0.607266
0.706263
0.725815
1.40845
1.40845
1.40845
1.40845
1.40845
1.40845
1.40845
1.40845
1.40845
1.40845
1.40845
1.40845
1.40845
1.40845
1.40845
1.40844
1.40839
1.408
1.40438
1.39017
1.2824
0.789086
0.539559
0.652842
0.712132
1.40845
1.40845
1.40845
1.40845
1.40845
1.40845
1.40845
1.40845
1.40845
1.40845
1.40845
1.40845
1.40845
1.40845
1.40845
1.40845
1.40843
1.4083
1.4072
1.39862
1.33684
1.06554
0.585308
0.594153
0.700067
1.40845
1.40845
1.40845
1.40845
1.40845
1.40845
1.40845
1.40845
1.40845
1.40845
1.40845
1.40845
1.40845
1.40845
1.40845
1.40845
1.40845
1.40841
1.40813
1.40584
1.3915
1.28196
0.849797
0.554211
0.640504
1.40845
1.40845
1.40845
1.40845
1.40845
1.40845
1.40845
1.40845
1.40845
1.40845
1.40845
1.40845
1.40845
1.40845
1.40845
1.40845
1.40845
1.40843
1.40833
1.40745
1.40079
1.35002
1.1077
0.650462
0.581359
1.40845
1.40845
1.40845
1.40845
1.40845
1.40845
1.40845
1.40845
1.40845
1.40845
1.40845
1.40845
1.40845
1.40845
1.40845
1.40845
1.40845
1.40845
1.40842
1.40822
1.40653
1.39511
1.30331
0.943298
0.593243
1.40845
1.40845
1.40845
1.40845
1.40845
1.40845
1.40845
1.40845
1.40845
1.40845
1.40845
1.40845
1.40845
1.40845
1.40845
1.40845
1.40845
1.40845
1.40844
1.40835
1.40773
1.40338
1.37289
1.19694
0.79617
1.40845
1.40845
1.40845
1.40845
1.40845
1.40845
1.40845
1.40845
1.40845
1.40845
1.40845
1.40845
1.40845
1.40845
1.40845
1.40845
1.40845
1.40845
1.40845
1.40843
1.40828
1.4072
1.39976
1.33906
1.07187
1.40845
1.40845
1.40845
1.40845
1.40845
1.40845
1.40845
1.40845
1.40845
1.40845
1.40845
1.40845
1.40845
1.40845
1.40845
1.40845
1.40845
1.40845
1.40845
1.40844
1.40831
1.40836
1.40667
1.39312
1.29943
1.40845
1.40845
1.40845
1.40845
1.40845
1.40845
1.40845
1.40845
1.40845
1.40845
1.40845
1.40845
1.40845
1.40845
1.40845
1.40845
1.40845
1.40845
1.40845
1.40845
1.40843
1.40834
1.40766
1.40287
1.37399
1.40845
1.40845
1.40845
1.40845
1.40845
1.40845
1.40845
1.40845
1.40845
1.40845
1.40845
1.40845
1.40845
1.40845
1.40845
1.40845
1.40845
1.40845
1.40845
1.40845
1.40845
1.40842
1.40837
1.40762
1.40007
1.40845
1.40845
1.40845
1.40845
1.40845
1.40845
1.40845
1.40845
1.40845
1.40845
1.40845
1.40845
1.40845
1.40845
1.40845
1.40845
1.40845
1.40845
1.40845
1.40845
1.40845
1.40844
1.40841
1.40854
1.40724
1.40845
1.40845
1.40845
1.40845
1.40845
1.40845
1.40845
1.40845
1.40845
1.40845
1.40845
1.40845
1.40845
1.40845
1.40845
1.40845
1.40845
1.40845
1.40845
1.40845
1.40845
1.40845
1.40845
1.40842
1.40845
1.40845
1.40845
1.40845
1.40845
1.40845
1.40845
1.40845
1.40845
1.40845
1.40845
1.40845
1.40845
1.40845
1.40845
1.40845
1.40845
1.40845
1.40845
1.40845
1.40845
1.40845
1.40845
1.40845
1.40843
1.40831
1.40845
1.40845
1.40845
1.40845
1.40845
1.40845
1.40845
1.40845
1.40845
1.40845
1.40845
1.40845
1.40845
1.40845
1.40845
1.40845
1.40845
1.40845
1.40845
1.40845
1.40845
1.40845
1.40845
1.40845
1.40844
1.40845
1.40845
1.40845
1.40845
1.40845
1.40845
1.40845
1.40845
1.40845
1.40845
1.40845
1.40845
1.40845
1.40845
1.40845
1.40845
1.40845
1.40845
1.40845
1.40845
1.40845
1.40845
1.40845
1.40845
1.40842
1.40845
1.40845
1.40845
1.40845
1.40845
1.40845
1.40845
1.40845
1.40845
1.40845
1.40845
1.40845
1.40845
1.40845
1.40845
1.40845
1.40845
1.40845
1.40845
1.40845
1.40845
1.40845
1.40845
1.40845
1.40843
1.40845
1.40845
1.40845
1.40845
1.40845
1.40845
1.40845
1.40845
1.40845
1.40845
1.40845
1.40845
1.40845
1.40845
1.40845
1.40845
1.40845
1.40845
1.40845
1.40845
1.40845
1.40845
1.40845
1.40845
1.40843
1.40845
1.40845
1.40845
1.40845
1.40845
1.40845
1.40845
1.40845
1.40845
1.40845
1.40845
1.40845
1.40845
1.40845
1.40845
1.40845
1.40845
1.40845
1.40845
1.40845
1.40845
1.40845
1.40845
1.40845
1.40843
1.40845
1.40845
1.40845
1.40845
1.40845
1.40845
1.40845
1.40845
1.40845
1.40845
1.40845
1.40845
1.40845
1.40845
1.40845
1.40845
1.40845
1.40845
1.40845
1.40845
1.40845
1.40845
1.40845
1.40845
1.40843
1.40845
1.40845
1.40845
1.40845
1.40845
1.40845
1.40845
1.40845
1.40845
1.40845
1.40845
1.40845
1.40845
1.40845
1.40845
1.40845
1.40845
1.40845
1.40845
1.40845
1.40845
1.40845
1.40845
1.40845
1.40843
1.40845
1.40845
1.40845
1.40845
1.40845
1.40845
1.40845
1.40845
1.40845
1.40845
1.40845
1.40845
1.40845
1.40845
1.40845
1.40845
1.40845
1.40845
1.40845
1.40845
1.40845
1.40845
1.40845
1.40845
1.40843
0.647834
0.577827
0.530887
0.533927
0.536418
0.51957
0.512543
0.531294
0.5611
0.565657
0.565786
0.56364
0.562717
0.557656
0.564804
0.580521
0.587664
0.589772
0.590165
0.589096
0.588722
0.588339
0.588722
0.589212
0.590899
0.592223
0.592601
0.592924
0.593751
0.59301
0.592734
0.589175
0.583629
0.578209
0.571616
0.565663
0.556762
0.547208
0.5423
0.54026
0.528545
0.521913
0.516035
0.510606
0.50816
0.506207
0.503707
0.502592
0.500041
0.500962
0.50244
0.504162
0.506188
0.508076
0.510087
0.512378
0.514741
0.517299
0.519674
0.522106
0.524484
0.526823
0.529182
0.531587
0.533949
0.536239
0.538548
0.540769
0.543025
0.545178
0.547352
0.549458
0.551593
0.553677
0.555783
0.557831
0.559897
0.561888
0.563903
0.565874
0.567881
0.569868
0.571878
0.573905
0.57595
0.57803
0.580129
0.582264
0.584422
0.586606
0.588821
0.591042
0.593306
0.59562
0.597983
0.600488
0.603058
0.607028
0.607696
0.606013
0.65284
0.590948
0.555242
0.528029
0.523643
0.505406
0.491357
0.492609
0.527962
0.528602
0.526777
0.518022
0.514622
0.511873
0.523085
0.529604
0.533694
0.534144
0.533341
0.533109
0.532932
0.5326
0.532816
0.532018
0.533349
0.535125
0.535434
0.535632
0.536556
0.535249
0.534708
0.53296
0.52876
0.526076
0.520413
0.515177
0.507713
0.502681
0.499572
0.498014
0.494845
0.49136
0.483515
0.486349
0.487887
0.488659
0.491995
0.495454
0.499559
0.504745
0.510202
0.51604
0.521056
0.525711
0.530563
0.535662
0.53999
0.544661
0.548881
0.553121
0.557393
0.560874
0.563898
0.56697
0.570211
0.573311
0.576237
0.579005
0.581759
0.584465
0.587239
0.589915
0.592628
0.595194
0.597795
0.600225
0.602659
0.604921
0.607188
0.609382
0.611613
0.613827
0.616066
0.618329
0.620572
0.62285
0.625065
0.627302
0.629506
0.631675
0.633873
0.63601
0.63818
0.640384
0.642627
0.644982
0.647523
0.651378
0.652281
0.650212
0.733036
0.663145
0.605147
0.557141
0.543893
0.537827
0.533594
0.504091
0.495583
0.486145
0.490761
0.507364
0.513626
0.502363
0.494
0.507416
0.513872
0.514789
0.514404
0.512546
0.511589
0.511063
0.511522
0.511976
0.512308
0.51298
0.512611
0.512367
0.513547
0.512401
0.512053
0.509006
0.504645
0.500713
0.498184
0.49786
0.478761
0.481428
0.483392
0.481532
0.48364
0.488309
0.495354
0.506209
0.514791
0.52398
0.533073
0.541924
0.551373
0.558746
0.566128
0.574656
0.580756
0.585825
0.590973
0.596844
0.601297
0.606062
0.610527
0.614719
0.619253
0.623495
0.626967
0.630308
0.633778
0.637186
0.640183
0.642793
0.64538
0.64788
0.650373
0.652836
0.65536
0.657939
0.660609
0.663258
0.665928
0.668418
0.670933
0.673332
0.675765
0.678096
0.680383
0.682638
0.684854
0.687085
0.689313
0.691563
0.693831
0.696119
0.698439
0.700773
0.70314
0.705537
0.707982
0.710499
0.713215
0.717397
0.718345
0.715429
0.79336
0.754776
0.700002
0.631105
0.58582
0.576734
0.584407
0.560662
0.534421
0.514044
0.499729
0.502338
0.509392
0.519958
0.509154
0.502561
0.503122
0.504222
0.505913
0.512933
0.518255
0.5167
0.516977
0.5155
0.515477
0.517619
0.517874
0.516879
0.517676
0.512631
0.509133
0.5016
0.494985
0.490051
0.486281
0.487609
0.492163
0.501537
0.513982
0.527989
0.537234
0.55152
0.561315
0.571332
0.581777
0.590259
0.596761
0.606214
0.611995
0.618329
0.623573
0.62895
0.634787
0.639689
0.644424
0.649934
0.653561
0.657209
0.661029
0.664548
0.668458
0.672682
0.676123
0.679082
0.682022
0.685077
0.688272
0.691496
0.694104
0.696257
0.698372
0.700512
0.702738
0.705067
0.707503
0.709997
0.712526
0.715006
0.717465
0.71988
0.722302
0.724709
0.727142
0.729574
0.732021
0.734441
0.736821
0.739164
0.74147
0.743763
0.746055
0.748372
0.750724
0.753107
0.755567
0.758119
0.760929
0.764961
0.766958
0.763722
0.802737
0.794536
0.766466
0.719332
0.666343
0.631231
0.648674
0.631501
0.601654
0.571592
0.54026
0.525924
0.524274
0.529725
0.531746
0.52584
0.518985
0.512729
0.509308
0.509692
0.511265
0.513365
0.515466
0.517152
0.517521
0.517671
0.519262
0.520275
0.51733
0.513575
0.508493
0.501403
0.503766
0.510416
0.518038
0.530023
0.542894
0.559309
0.576984
0.588591
0.599551
0.613733
0.625657
0.634972
0.643309
0.648102
0.653377
0.6599
0.663481
0.668225
0.670948
0.675651
0.679519
0.683244
0.687459
0.691119
0.693839
0.696542
0.699992
0.70349
0.707064
0.710529
0.712925
0.7153
0.71805
0.721367
0.724961
0.727572
0.72954
0.731583
0.733744
0.735975
0.738196
0.740398
0.742636
0.744881
0.747203
0.749599
0.751929
0.754228
0.756545
0.758885
0.761272
0.763723
0.766237
0.768746
0.771213
0.773669
0.776128
0.778611
0.781124
0.78355
0.785999
0.788406
0.790875
0.793435
0.796275
0.800102
0.802938
0.799355
0.791371
0.807485
0.798912
0.771304
0.740829
0.70573
0.711688
0.695475
0.663509
0.62874
0.60272
0.577929
0.563396
0.564709
0.561747
0.554184
0.54519
0.536438
0.529359
0.523752
0.520732
0.518993
0.518941
0.519467
0.520259
0.519892
0.519979
0.519441
0.515638
0.515314
0.516014
0.520287
0.527103
0.540754
0.557357
0.581614
0.600266
0.623828
0.642294
0.655366
0.669522
0.678631
0.689036
0.690934
0.693385
0.696927
0.698316
0.700721
0.704074
0.705911
0.708062
0.712485
0.714613
0.716693
0.719607
0.722234
0.723797
0.725641
0.728532
0.732276
0.73411
0.736155
0.738593
0.741271
0.744292
0.747086
0.749341
0.751556
0.754015
0.756773
0.758994
0.760881
0.762743
0.764665
0.766727
0.769029
0.771554
0.773886
0.776085
0.778304
0.780556
0.782861
0.785224
0.787618
0.790042
0.792492
0.794967
0.797483
0.800049
0.802621
0.805184
0.807698
0.810239
0.812807
0.815453
0.818224
0.821283
0.825136
0.828646
0.824813
0.769182
0.801515
0.806219
0.797246
0.787523
0.769845
0.770837
0.768326
0.746428
0.713145
0.682565
0.65662
0.630437
0.616561
0.611156
0.598016
0.586402
0.573674
0.564906
0.555554
0.547429
0.540913
0.536801
0.532167
0.530299
0.527458
0.524309
0.522514
0.523016
0.524691
0.530757
0.546588
0.574122
0.6112
0.63745
0.667998
0.685602
0.7081
0.714783
0.720938
0.727632
0.731262
0.734132
0.731329
0.733736
0.732951
0.734002
0.737195
0.736649
0.734799
0.733663
0.73494
0.738552
0.740505
0.741324
0.742328
0.743662
0.745529
0.746904
0.749001
0.750958
0.752865
0.755341
0.757759
0.759988
0.762329
0.76474
0.767269
0.769846
0.771887
0.773696
0.775559
0.777545
0.779718
0.782144
0.784499
0.786607
0.788743
0.790957
0.793273
0.79569
0.798185
0.800488
0.802794
0.805136
0.80752
0.809976
0.812518
0.815138
0.817802
0.820471
0.823143
0.82584
0.828581
0.831398
0.834337
0.837543
0.841445
0.845483
0.841577
0.744738
0.787772
0.798913
0.804318
0.805973
0.804311
0.810931
0.820148
0.813046
0.790614
0.7598
0.735847
0.712974
0.688681
0.681678
0.670885
0.653221
0.633345
0.618413
0.60197
0.59179
0.581489
0.572669
0.562192
0.553824
0.544819
0.539317
0.53195
0.537647
0.549116
0.572451
0.614297
0.655738
0.692908
0.720922
0.748165
0.763401
0.78143
0.785694
0.790182
0.790531
0.788251
0.782969
0.771577
0.763314
0.754547
0.757036
0.759966
0.758588
0.756216
0.750387
0.749607
0.750369
0.753317
0.754517
0.755826
0.756712
0.757131
0.757683
0.758495
0.760549
0.76311
0.765823
0.768031
0.769522
0.771135
0.773195
0.775705
0.778146
0.780494
0.782677
0.784876
0.78708
0.788934
0.790815
0.792786
0.794932
0.797314
0.799896
0.802567
0.805051
0.807253
0.809472
0.811733
0.814053
0.816444
0.818938
0.821539
0.824238
0.82701
0.829802
0.832611
0.835434
0.838299
0.841236
0.844315
0.847686
0.851798
0.856221
0.852285
0.734628
0.769165
0.784685
0.803093
0.805521
0.811524
0.823785
0.841318
0.853593
0.846676
0.828434
0.809432
0.792093
0.772667
0.762461
0.75497
0.738921
0.716865
0.694853
0.674562
0.657255
0.641627
0.627408
0.611909
0.597152
0.574012
0.562278
0.554945
0.569215
0.596445
0.642597
0.703352
0.735804
0.760835
0.78468
0.806099
0.820925
0.835189
0.841303
0.846377
0.846005
0.844386
0.836141
0.823023
0.809318
0.790389
0.76211
0.763534
0.767454
0.765515
0.765376
0.76391
0.758106
0.759327
0.760665
0.762302
0.764337
0.764197
0.764316
0.76491
0.76615
0.768808
0.770779
0.772432
0.773982
0.775909
0.778358
0.781412
0.783716
0.78523
0.786846
0.788658
0.790705
0.793008
0.79546
0.79779
0.800065
0.802339
0.804658
0.807061
0.80962
0.812071
0.8144
0.816752
0.819145
0.821578
0.824069
0.826649
0.829333
0.83212
0.834981
0.837894
0.840846
0.843855
0.846945
0.850171
0.853674
0.857917
0.862567
0.858655
0.732546
0.755904
0.770803
0.792524
0.799215
0.809138
0.823265
0.841276
0.861846
0.870233
0.864502
0.852645
0.843837
0.835053
0.827245
0.819935
0.81265
0.799036
0.781663
0.763907
0.744698
0.725472
0.705507
0.681381
0.657046
0.618403
0.581489
0.598534
0.623998
0.663177
0.723291
0.766225
0.789151
0.812814
0.831523
0.84724
0.859149
0.872423
0.879947
0.884678
0.886397
0.885139
0.878162
0.868644
0.855876
0.835289
0.813122
0.790492
0.756276
0.762821
0.774599
0.772547
0.771076
0.769016
0.764527
0.765316
0.766946
0.76769
0.768336
0.769617
0.770274
0.771395
0.772876
0.77425
0.77658
0.780252
0.782293
0.783218
0.784402
0.786107
0.788391
0.791195
0.793932
0.796137
0.798089
0.80005
0.802125
0.804408
0.807005
0.80996
0.81279
0.81495
0.817081
0.819273
0.821546
0.823936
0.826473
0.829166
0.831983
0.834886
0.837828
0.840793
0.843781
0.846827
0.849964
0.853256
0.856847
0.8612
0.866098
0.862216
0.734765
0.752157
0.764471
0.779039
0.78911
0.8021
0.81734
0.836233
0.856448
0.876036
0.877045
0.871682
0.870057
0.865997
0.860905
0.862307
0.862905
0.85878
0.849121
0.834228
0.817746
0.801141
0.780113
0.752386
0.70951
0.628064
0.632731
0.653058
0.681672
0.721507
0.771128
0.796597
0.822566
0.847062
0.862755
0.878173
0.889449
0.898243
0.9013
0.90577
0.909948
0.908163
0.904584
0.90036
0.892221
0.879405
0.864144
0.839792
0.809319
0.779589
0.750674
0.760236
0.775031
0.775991
0.775229
0.772492
0.769784
0.77034
0.771099
0.772479
0.772899
0.773537
0.775453
0.777266
0.779655
0.781706
0.783292
0.784724
0.786797
0.789456
0.792175
0.794274
0.795952
0.797703
0.799668
0.801897
0.804403
0.807126
0.81002
0.812605
0.814802
0.817028
0.819319
0.821699
0.824156
0.826703
0.829347
0.832062
0.834822
0.837625
0.840483
0.843411
0.846431
0.849562
0.852806
0.856189
0.859824
0.864177
0.869041
0.865025
0.74012
0.75347
0.765801
0.773454
0.781562
0.792184
0.806597
0.825758
0.846719
0.868769
0.881725
0.882472
0.88293
0.880748
0.882103
0.885183
0.887659
0.891995
0.890116
0.883224
0.869852
0.853208
0.829538
0.791527
0.730053
0.64137
0.676969
0.696512
0.724875
0.764566
0.790513
0.811627
0.833752
0.85341
0.870605
0.887434
0.900473
0.910619
0.91682
0.919615
0.918713
0.916617
0.917751
0.919294
0.916429
0.91119
0.902564
0.884268
0.862772
0.836029
0.801034
0.754235
0.758611
0.77663
0.77846
0.780681
0.780505
0.778283
0.777526
0.778711
0.779745
0.780401
0.78146
0.783118
0.785574
0.786971
0.788404
0.790815
0.793923
0.7958
0.797405
0.799045
0.801072
0.80361
0.806329
0.808615
0.810652
0.812724
0.814917
0.817191
0.819502
0.821933
0.824437
0.826801
0.829189
0.831607
0.834081
0.836618
0.839227
0.841934
0.844769
0.847725
0.850777
0.8539
0.857069
0.860322
0.863795
0.867999
0.872695
0.868567
0.747196
0.757203
0.768366
0.774272
0.780553
0.787524
0.797636
0.812846
0.832534
0.855095
0.873857
0.886547
0.887723
0.888794
0.891172
0.894819
0.899912
0.907262
0.914237
0.907735
0.897619
0.881196
0.848884
0.791463
0.695068
0.679092
0.704622
0.721343
0.747284
0.776872
0.79543
0.815123
0.834728
0.851116
0.868373
0.881746
0.892036
0.902157
0.911915
0.919272
0.924025
0.925267
0.925549
0.927501
0.926631
0.925913
0.922555
0.914601
0.906969
0.890897
0.865387
0.83467
0.796165
0.757272
0.76949
0.781841
0.794409
0.791906
0.79149
0.789273
0.790319
0.791034
0.791726
0.793136
0.794174
0.795667
0.796763
0.798468
0.801554
0.803329
0.805115
0.807381
0.809805
0.81233
0.814549
0.816516
0.818434
0.820543
0.822807
0.825146
0.827489
0.829775
0.83199
0.834194
0.83646
0.838811
0.841287
0.843901
0.846637
0.84946
0.852324
0.855143
0.857995
0.860888
0.863838
0.866895
0.870211
0.874282
0.878755
0.874379
0.749575
0.759969
0.771452
0.777442
0.782963
0.788204
0.79646
0.807988
0.823147
0.841447
0.859028
0.878791
0.886281
0.888016
0.890385
0.895888
0.902862
0.910118
0.914102
0.907442
0.899415
0.876821
0.828078
0.754065
0.680291
0.716373
0.725909
0.74035
0.758293
0.775207
0.791642
0.809317
0.826025
0.839818
0.852201
0.862028
0.872473
0.883907
0.892966
0.899923
0.908499
0.918399
0.929427
0.932919
0.932426
0.930737
0.930514
0.934572
0.936743
0.930382
0.919756
0.899275
0.86698
0.827213
0.768967
0.77039
0.791423
0.79452
0.80307
0.801468
0.801654
0.800269
0.800038
0.800505
0.801624
0.803123
0.804856
0.805661
0.80711
0.809659
0.813224
0.815687
0.816932
0.818255
0.819882
0.822049
0.824824
0.827607
0.829395
0.831331
0.833532
0.835952
0.838414
0.840782
0.843155
0.845553
0.847996
0.850506
0.853098
0.855839
0.858781
0.861904
0.865179
0.868558
0.871859
0.875086
0.878462
0.882494
0.886891
0.882397
0.752202
0.76292
0.773864
0.781415
0.786202
0.790661
0.797747
0.807108
0.819353
0.83371
0.848582
0.863556
0.880566
0.884028
0.887353
0.893347
0.900797
0.909201
0.906123
0.900896
0.887413
0.849919
0.783181
0.686229
0.70587
0.728234
0.743593
0.751372
0.75966
0.76969
0.782814
0.79857
0.813089
0.825528
0.836142
0.846875
0.858099
0.868282
0.877274
0.887425
0.898519
0.911352
0.917208
0.923848
0.932388
0.937497
0.944497
0.948814
0.95251
0.952406
0.951429
0.943029
0.924609
0.89843
0.859484
0.815458
0.76878
0.782624
0.795952
0.812907
0.811211
0.809687
0.80609
0.806583
0.807244
0.808387
0.810442
0.812989
0.814838
0.815815
0.816836
0.818228
0.820084
0.82251
0.825177
0.82692
0.82864
0.830447
0.832528
0.834917
0.837642
0.840271
0.842695
0.845157
0.847741
0.850467
0.853125
0.855712
0.858423
0.861318
0.864439
0.867798
0.871379
0.874968
0.878313
0.881655
0.885174
0.889364
0.894066
0.889624
0.75238
0.766136
0.777022
0.786506
0.791682
0.795633
0.801112
0.808732
0.819006
0.830825
0.844459
0.856427
0.873059
0.878931
0.882596
0.889144
0.896636
0.896812
0.893553
0.884476
0.854273
0.79751
0.704165
0.710382
0.733725
0.738478
0.743967
0.7489
0.755264
0.764068
0.774765
0.786783
0.799096
0.811363
0.822197
0.834048
0.84458
0.855037
0.866535
0.877536
0.889844
0.897636
0.907165
0.918885
0.928181
0.939076
0.950892
0.958541
0.958545
0.960975
0.965997
0.965154
0.959231
0.948182
0.92465
0.8917
0.849758
0.790175
0.783059
0.800286
0.805429
0.818469
0.817383
0.815331
0.810757
0.812016
0.813303
0.815645
0.817589
0.818403
0.819414
0.820896
0.823073
0.825959
0.828294
0.829894
0.831755
0.833862
0.836206
0.838849
0.841696
0.844676
0.84726
0.849763
0.852348
0.855092
0.857784
0.860425
0.863218
0.866208
0.869391
0.872698
0.87609
0.879518
0.882839
0.886217
0.889764
0.893971
0.898827
0.894367
0.748514
0.765926
0.777244
0.789014
0.794418
0.799544
0.804898
0.811786
0.820259
0.830295
0.84162
0.853733
0.866632
0.874312
0.881126
0.88634
0.885661
0.882316
0.874909
0.849398
0.799186
0.710406
0.710723
0.731904
0.737049
0.738362
0.740311
0.743938
0.749653
0.757481
0.76663
0.777114
0.788473
0.800447
0.812476
0.824032
0.835104
0.846452
0.858682
0.868721
0.878967
0.890053
0.9025
0.911846
0.923009
0.936287
0.942962
0.950058
0.959541
0.971225
0.973483
0.977303
0.973841
0.972785
0.964379
0.950506
0.923177
0.884931
0.839749
0.777306
0.784511
0.803459
0.813314
0.824021
0.821968
0.821767
0.821196
0.820579
0.820772
0.822061
0.825591
0.828509
0.829876
0.831514
0.833564
0.835594
0.837793
0.840094
0.842211
0.84439
0.846712
0.849295
0.852184
0.855195
0.85808
0.860789
0.863463
0.866158
0.868886
0.871705
0.874679
0.877825
0.881059
0.884271
0.887521
0.890866
0.894394
0.898556
0.903507
0.898982
0.749183
0.766603
0.779852
0.793495
0.798706
0.803243
0.808365
0.814486
0.821879
0.830776
0.840651
0.852325
0.861028
0.869907
0.881736
0.878083
0.873395
0.867195
0.843976
0.797307
0.714596
0.706308
0.726211
0.735668
0.735971
0.736927
0.738888
0.742531
0.747893
0.754726
0.762704
0.77182
0.781831
0.793036
0.805102
0.816522
0.828502
0.840985
0.851223
0.861849
0.872925
0.885612
0.895932
0.905715
0.917064
0.92569
0.935494
0.945045
0.953715
0.961979
0.970466
0.980789
0.979693
0.981954
0.981261
0.980658
0.970772
0.948861
0.915252
0.870443
0.822281
0.787452
0.801077
0.812322
0.833583
0.832199
0.829393
0.825835
0.825365
0.825375
0.826426
0.83119
0.836513
0.837297
0.838354
0.839628
0.841322
0.843713
0.846503
0.849913
0.851952
0.854175
0.856701
0.85963
0.862931
0.866306
0.868811
0.871294
0.873827
0.876552
0.879503
0.88265
0.886152
0.889257
0.892464
0.895801
0.899336
0.903434
0.908479
0.903896
0.747836
0.766104
0.779202
0.79292
0.801178
0.804887
0.810005
0.816155
0.823135
0.830942
0.839478
0.850047
0.860347
0.874672
0.875158
0.869682
0.862212
0.840478
0.79659
0.721923
0.701827
0.724132
0.729487
0.734902
0.737204
0.739154
0.741332
0.744471
0.748849
0.754779
0.762028
0.77036
0.779754
0.789863
0.800717
0.812093
0.824116
0.834812
0.844795
0.856078
0.867585
0.878319
0.887753
0.898279
0.906933
0.917206
0.927797
0.93679
0.945429
0.95504
0.963689
0.971161
0.979288
0.989399
0.988498
0.992184
0.989386
0.983111
0.969147
0.944649
0.909225
0.864865
0.797151
0.799361
0.819962
0.823812
0.838552
0.837683
0.83561
0.832573
0.833114
0.834528
0.837657
0.842692
0.843972
0.844336
0.845394
0.847281
0.849886
0.85291
0.856151
0.858819
0.861607
0.864698
0.867875
0.871352
0.873727
0.875821
0.878261
0.881201
0.884515
0.887804
0.891311
0.894785
0.89801
0.901359
0.904921
0.908991
0.914283
0.909658
0.747972
0.761248
0.774406
0.787122
0.798508
0.80271
0.808856
0.816431
0.822959
0.83047
0.838817
0.848167
0.858884
0.871482
0.866374
0.858687
0.840917
0.798975
0.731092
0.698307
0.723276
0.726286
0.73119
0.736908
0.740333
0.742982
0.745838
0.749204
0.753314
0.75849
0.764851
0.772408
0.780949
0.79017
0.800084
0.810599
0.821875
0.831029
0.841243
0.851957
0.863393
0.872248
0.881954
0.892187
0.902052
0.913707
0.921617
0.930581
0.940006
0.949382
0.958605
0.967535
0.977554
0.983426
0.989052
0.995392
0.999876
0.998857
0.998481
0.990934
0.974418
0.942016
0.89758
0.850308
0.795151
0.805171
0.821821
0.834278
0.848625
0.847311
0.844377
0.840333
0.840708
0.841835
0.845113
0.849339
0.850962
0.852951
0.855153
0.857543
0.860471
0.863486
0.866415
0.870118
0.873262
0.875926
0.878419
0.880586
0.883102
0.886109
0.889914
0.89334
0.896797
0.900311
0.903574
0.907082
0.910884
0.915171
0.920681
0.915844
0.723258
0.75505
0.771026
0.786928
0.799538
0.803067
0.808003
0.81689
0.823172
0.82992
0.838278
0.847499
0.860641
0.859716
0.852703
0.838874
0.801192
0.743794
0.698751
0.726275
0.727193
0.730889
0.736924
0.740533
0.744638
0.748758
0.753169
0.756501
0.759935
0.763739
0.768409
0.774188
0.781138
0.789193
0.798347
0.807848
0.817869
0.827921
0.838769
0.848189
0.858101
0.867602
0.877517
0.887518
0.898573
0.907303
0.917113
0.926474
0.936154
0.944983
0.953769
0.963056
0.972869
0.980468
0.989124
0.997884
1.00858
1.01028
1.0113
1.00939
1.00634
0.992829
0.968146
0.935567
0.890284
0.833956
0.811874
0.828845
0.835734
0.8542
0.854218
0.850182
0.848398
0.848381
0.849233
0.852277
0.855941
0.860499
0.862333
0.864185
0.866363
0.869148
0.872001
0.875995
0.880021
0.881828
0.883845
0.886241
0.888944
0.892057
0.896228
0.90003
0.903368
0.907004
0.910281
0.913808
0.917628
0.922024
0.927353
0.922229
0.718748
0.746003
0.766005
0.782721
0.798451
0.806598
0.808074
0.815444
0.823825
0.829567
0.837041
0.848018
0.853111
0.845701
0.833731
0.798499
0.74471
0.69681
0.725603
0.726892
0.731228
0.73832