/*--------------------------------*- C++ -*----------------------------------*\
| =========                 |                                                 |
| \\      /  F ield         | OpenFOAM: The Open Source CFD Toolbox           |
|  \\    /   O peration     | Version:  v2106                                 |
|   \\  /    A nd           | Website:  www.openfoam.com                      |
|    \\/     M anipulation  |                                                 |
\*---------------------------------------------------------------------------*/
FoamFile
{
    version     2.0;
    format      ascii;
    arch        "LSB;label=32;scalar=64";
    class       volScalarField;
    location    "7";
    object      T;
}
// * * * * * * * * * * * * * * * * * * * * * * * * * * * * * * * * * * * * * //

dimensions      [0 0 0 1 0 0 0];

internalField   nonuniform List<scalar> 
5250
(
1
1
1
1
1
1
1
1
1.00002
1.00015
1.00132
1.0123
1.09809
1.45931
2.71609
2.71473
2.54655
2.5179
2.56226
2.55204
2.5555
2.56535
2.56566
2.56253
2.55566
1
1
1
1
1
1
1
1
1.00002
1.00016
1.00137
1.01232
1.0941
1.4499
2.68092
2.71646
2.53428
2.50703
2.55453
2.54438
2.54895
2.56178
2.56115
2.55846
2.55195
1
1
1
1
1
1
1
1
1.00002
1.00014
1.00126
1.01121
1.08704
1.42995
2.58863
2.71933
2.50013
2.47757
2.53083
2.52565
2.53371
2.54934
2.55029
2.54752
2.54097
1
1
1
1
1
1
1
1
1.00001
1.00013
1.00111
1.00986
1.07794
1.39836
2.43492
2.72851
2.44474
2.43168
2.49202
2.49667
2.51077
2.5321
2.53711
2.53527
2.52954
1
1
1
1
1
1
1
1
1.00001
1.0001
1.00092
1.00811
1.06594
1.35529
2.21229
2.74986
2.37262
2.36821
2.43503
2.45062
2.47525
2.50848
2.51989
2.51839
2.51281
1
1
1
1
1
1
1
1
1.00001
1.00008
1.00073
1.00631
1.05291
1.30483
1.99653
2.82116
2.2845
2.276
2.35052
2.38696
2.43004
2.48059
2.49863
2.49997
2.49402
1
1
1
1
1
1
1
1
1.00001
1.00006
1.00055
1.00478
1.04214
1.25953
1.90015
2.95802
2.31627
2.25129
2.29165
2.31294
2.36444
2.43438
2.46472
2.47603
2.46718
1
1
1
1
1
1
1
1
1
1.00004
1.00039
1.00353
1.03264
1.21482
1.79654
3.11175
2.43755
2.28615
2.30321
2.28403
2.30476
2.37164
2.42656
2.44551
2.42403
1
1
1
1
1
1
1
1
1
1.00003
1.00031
1.00281
1.02573
1.17893
1.69847
3.10849
2.53436
2.35857
2.3365
2.28792
2.28091
2.30124
2.36259
2.40184
2.35964
1
1
1
1
1
1
1
1
1
1.00002
1.00023
1.00209
1.01931
1.14253
1.602
3.00601
2.5267
2.46034
2.4097
2.32906
2.27777
2.26491
2.29766
2.34223
2.20931
1
1
1
1
1
1
1
1
1
1.00002
1.00017
1.00153
1.01417
1.11032
1.50249
2.82736
2.55083
2.45633
2.41431
2.36718
2.29436
2.21983
2.20145
2.18365
1.95595
1
1
1
1
1
1
1
1
1
1.00002
1.00014
1.00122
1.01051
1.07941
1.40313
2.62522
2.593
2.41655
2.37802
2.37181
2.32833
2.2337
2.16557
2.12601
1.80735
1
1
1
1
1
1
1
1
1
1.00001
1.00007
1.00068
1.0058
1.0496
1.29599
2.09434
2.68011
2.31263
2.32092
2.3455
2.32896
2.26434
2.14875
2.09335
1.80904
1
1
1
1
1
1
1
1
1
1
1.00004
1.00036
1.00318
1.03161
1.21195
1.79344
2.86564
2.29291
2.25968
2.29641
2.30636
2.26424
2.16281
2.06714
1.82535
1
1
1
1
1
1
1
1
1
1
1.00003
1.00027
1.00223
1.02058
1.15044
1.62241
2.91082
2.2952
2.25533
2.25366
2.26677
2.24526
2.16782
2.07114
1.87367
1
1
1
1
1
1
1
1
1
1
1.00002
1.00016
1.00136
1.01261
1.09922
1.4718
2.79583
2.40901
2.21944
2.19235
2.21224
2.21073
2.16446
2.08422
1.93867
1
1
1
1
1
1
1
1
1
1
1.00001
1.00009
1.00082
1.00708
1.05803
1.32957
2.50754
2.5722
2.22876
2.15027
2.16298
2.17473
2.14696
2.08492
1.97571
1
1
1
1
1
1
1
1
1
1
1.00001
1.00004
1.00039
1.00341
1.0308
1.20765
1.80093
2.80472
2.2391
2.18218
2.1371
2.13638
2.11681
2.0733
1.99174
1
1
1
1
1
1
1
1
1
1
1
1.00003
1.00023
1.00199
1.01702
1.12074
1.53823
2.76418
2.31957
2.17957
2.10306
2.09496
2.08075
2.05175
1.99021
1
1
1
1
1
1
1
1
1
1
1
1.00001
1.00008
1.00074
1.0064
1.0546
1.35461
2.59059
2.50144
2.1759
2.0678
2.06291
2.05092
2.02714
1.98107
1
1
1
1
1
1
1
1
1
1
1
1.00001
1.00005
1.0004
1.00345
1.0298
1.20212
1.84487
2.76254
2.20228
2.1297
2.05248
2.02775
2.0007
1.96354
1
1
1
1
1
1
1
1
1
1
1
1
1.00002
1.0002
1.0017
1.01428
1.10816
1.50865
2.68495
2.34562
2.12134
2.03367
1.99794
1.97184
1.94038
1
1
1
1
1
1
1
1
1
1
1
1
1.00001
1.00007
1.00063
1.00546
1.04728
1.2962
2.33058
2.56677
2.14092
2.05152
1.99695
1.96163
1.92509
1
1
1
1
1
1
1
1
1
1
1
1
1
1.00004
1.00032
1.00262
1.02146
1.15005
1.67017
2.68376
2.22841
2.085
1.99268
1.95572
1.91853
1
1
1
1
1
1
1
1
1
1
1
1
1
1.00001
1.0001
1.00088
1.0075
1.0633
1.37436
2.51662
2.42103
2.09209
2.00925
1.9592
1.9179
1
1
1
1
1
1
1
1
1
1
1
1
1
1.00001
1.00005
1.00041
1.00318
1.02564
1.17407
1.78312
2.65617
2.17614
2.04393
1.95693
1.91826
1
1
1
1
1
1
1
1
1
1
1
1
1
1
1.00001
1.00011
1.00096
1.00833
1.07008
1.40719
2.52547
2.39055
2.06767
1.97984
1.92136
1
1
1
1
1
1
1
1
1
1
1
1
1
1
1.00001
1.00006
1.00046
1.00354
1.02784
1.19498
1.8633
2.60341
2.1533
2.02735
1.92045
1
1
1
1
1
1
1
1
1
1
1
1
1
1
1
1.00002
1.00012
1.00101
1.0082
1.06514
1.34604
2.4341
2.31933
1.99423
1.94051
1
1
1
1
1
1
1
1
1
1
1
1
1
1
1
1
1.00004
1.00032
1.0029
1.01315
1.09829
1.78491
2.61037
2.15742
1.97779
1
1
1
1
1
1
1
1
1
1
1
1
1
1
1
1
1.00001
1.00011
1.00089
1.00703
1.05357
1.32182
2.40634
2.37052
2.01188
1
1
1
1
1
1
1
1
1
1
1
1
1
1
1
1
1
1.00003
1.00023
1.00186
1.01218
1.09867
1.6574
2.54136
2.19897
1
1
1
1
1
1
1
1
1
1
1
1
1
1
1
1
1
1.00001
1.00009
1.00071
1.00547
1.04329
1.27151
2.16531
2.42268
1
1
1
1
1
1
1
1
1
1
1
1
1
1
1
1
1
1
1.00002
1.00017
1.00136
1.00956
1.08067
1.49311
2.37416
1
1
1
1
1
1
1
1
1
1
1
1
1
1
1
1
1
1
1.00001
1.00007
1.00051
1.00361
1.0259
1.17671
1.76903
1
1
1
1
1
1
1
1
1
1
1
1
1
1
1
1
1
1
1
1.00002
1.00012
1.00089
1.00621
1.05182
1.31401
1
1
1
1
1
1
1
1
1
1
1
1
1
1
1
1
1
1
1
1.00001
1.0001
1.00006
1.00127
1.01101
1.0839
1
1
1
1
1
1
1
1
1
1
1
1
1
1
1
1
1
1
1
1
1.00001
1.00008
1.00056
1.00398
1.02508
1
1
1
1
1
1
1
1
1
1
1
1
1
1
1
1
1
1
1
1
1
1.00002
1.00005
1.00059
1.00598
1
1
1
1
1
1
1
1
1
1
1
1
1
1
1
1
1
1
1
1
1
1
1.00003
0.999936
1.00086
1
1
1
1
1
1
1
1
1
1
1
1
1
1
1
1
1
1
1
1
1
1
1
1.00002
1
1
1
1
1
1
1
1
1
1
1
1
1
1
1
1
1
1
1
1
1
1
1
1
1.00001
1.0001
1
1
1
1
1
1
1
1
1
1
1
1
1
1
1
1
1
1
1
1
1
1
1
1
1.00001
1
1
1
1
1
1
1
1
1
1
1
1
1
1
1
1
1
1
1
1
1
1
1
1
1.00002
1
1
1
1
1
1
1
1
1
1
1
1
1
1
1
1
1
1
1
1
1
1
1
1
1.00001
1
1
1
1
1
1
1
1
1
1
1
1
1
1
1
1
1
1
1
1
1
1
1
1
1.00002
1
1
1
1
1
1
1
1
1
1
1
1
1
1
1
1
1
1
1
1
1
1
1
1
1.00002
1
1
1
1
1
1
1
1
1
1
1
1
1
1
1
1
1
1
1
1
1
1
1
1
1.00002
1
1
1
1
1
1
1
1
1
1
1
1
1
1
1
1
1
1
1
1
1
1
1
1
1.00002
1
1
1
1
1
1
1
1
1
1
1
1
1
1
1
1
1
1
1
1
1
1
1
1
1.00002
2.17409
2.4375
2.65301
2.63791
2.62566
2.7108
2.74797
2.65098
2.51016
2.48994
2.48937
2.49885
2.50295
2.52566
2.4937
2.42618
2.3967
2.38813
2.38654
2.39087
2.39238
2.39395
2.39239
2.3904
2.38357
2.37824
2.37672
2.37543
2.37212
2.37509
2.37619
2.39055
2.41326
2.43588
2.46398
2.48991
2.52972
2.57389
2.59718
2.60699
2.66477
2.69863
2.72937
2.75839
2.77167
2.78236
2.79617
2.80237
2.81667
2.81149
2.80322
2.79364
2.78246
2.77213
2.7612
2.74885
2.73623
2.7227
2.71026
2.69763
2.6854
2.67348
2.66156
2.64952
2.6378
2.62654
2.61528
2.60453
2.59371
2.58347
2.57321
2.56334
2.55342
2.54381
2.53417
2.52487
2.51555
2.50664
2.49768
2.48898
2.48019
2.47154
2.46285
2.45415
2.44544
2.43664
2.42783
2.41892
2.40999
2.40101
2.39199
2.383
2.3739
2.36468
2.35534
2.34551
2.33552
2.32024
2.31769
2.32413
2.15742
2.38337
2.53664
2.66737
2.68972
2.78677
2.86645
2.85916
2.66771
2.66448
2.67371
2.7189
2.73687
2.75156
2.69259
2.65944
2.63906
2.63684
2.64081
2.64196
2.64283
2.64448
2.64341
2.64738
2.64077
2.632
2.63048
2.62951
2.62498
2.6314
2.63406
2.6427
2.66369
2.67728
2.70641
2.73392
2.77411
2.80188
2.81932
2.82814
2.84624
2.86643
2.91294
2.89597
2.88684
2.88228
2.86273
2.84275
2.81939
2.79042
2.76057
2.72935
2.70307
2.67914
2.65463
2.62937
2.60829
2.58592
2.56604
2.54637
2.52685
2.51117
2.4977
2.48417
2.47005
2.45669
2.44422
2.43253
2.42102
2.40981
2.39843
2.38755
2.37662
2.36637
2.35608
2.34654
2.33706
2.32832
2.31963
2.31128
2.30285
2.29454
2.2862
2.27783
2.2696
2.2613
2.25329
2.24525
2.23739
2.22971
2.22198
2.21451
2.20698
2.19939
2.19171
2.18371
2.17514
2.16226
2.15927
2.16614
1.92139
2.1239
2.32745
2.528
2.58957
2.61878
2.63955
2.79404
2.84201
2.89719
2.86993
2.77602
2.74217
2.80365
2.85112
2.77573
2.74086
2.73598
2.73802
2.74795
2.75309
2.75592
2.75345
2.75101
2.74923
2.74562
2.7476
2.74891
2.74259
2.74873
2.75059
2.76706
2.79097
2.81289
2.82717
2.82901
2.94186
2.92557
2.91368
2.92494
2.91219
2.88434
2.84332
2.78235
2.73597
2.68799
2.64213
2.59898
2.55444
2.52073
2.48787
2.45095
2.4252
2.40422
2.38327
2.35983
2.34235
2.32394
2.30694
2.29121
2.27443
2.25896
2.24645
2.23454
2.22231
2.21042
2.20008
2.19114
2.18236
2.17394
2.16561
2.15743
2.14913
2.1407
2.13205
2.12354
2.11502
2.10714
2.09924
2.09176
2.08423
2.07707
2.07008
2.06325
2.05657
2.04989
2.04327
2.03662
2.02996
2.02329
2.01657
2.00985
2.00309
1.99628
1.98939
1.98234
1.97479
1.96328
1.96069
1.96868
1.7753
1.86605
2.01207
2.23172
2.40424
2.44212
2.41005
2.51212
2.63547
2.73994
2.81843
2.80379
2.76496
2.70878
2.76626
2.80255
2.79942
2.79331
2.78398
2.74588
2.71768
2.72586
2.7244
2.7322
2.73232
2.72102
2.71968
2.72491
2.72072
2.7475
2.76637
2.80791
2.84544
2.87409
2.89637
2.88848
2.86176
2.80827
2.74027
2.66758
2.62167
2.55376
2.5092
2.46521
2.42094
2.38616
2.36016
2.32335
2.30141
2.27783
2.25868
2.23937
2.21878
2.20177
2.18559
2.16707
2.15504
2.14308
2.1307
2.11941
2.10701
2.09378
2.08313
2.07405
2.06511
2.0559
2.04636
2.03682
2.02916
2.02289
2.01676
2.0106
2.00423
1.99761
1.99073
1.98374
1.9767
1.96984
1.96309
1.95651
1.94995
1.94347
1.93697
1.93051
1.92406
1.91772
1.91152
1.90546
1.89954
1.89368
1.88786
1.88202
1.87612
1.87019
1.8641
1.85782
1.85096
1.84121
1.83641
1.84419
1.75456
1.77267
1.83759
1.958
2.1137
2.23128
2.17128
2.23032
2.34096
2.46408
2.60699
2.67805
2.68648
2.65883
2.64873
2.67848
2.71386
2.74697
2.76542
2.76334
2.75484
2.74357
2.73238
2.72348
2.72154
2.72074
2.71241
2.70713
2.72254
2.74244
2.76985
2.80902
2.79584
2.75942
2.71882
2.65734
2.59434
2.5182
2.44106
2.39292
2.34918
2.29489
2.25116
2.21813
2.18938
2.17319
2.15565
2.13434
2.12282
2.10775
2.09919
2.08458
2.07272
2.06142
2.04878
2.03793
2.02994
2.02206
2.0121
2.00209
1.99197
1.98226
1.97559
1.96904
1.96149
1.95247
1.9428
1.93582
1.9306
1.92521
1.91954
1.91372
1.90796
1.90229
1.89656
1.89084
1.88496
1.87894
1.87312
1.86741
1.86169
1.85595
1.85013
1.84419
1.83814
1.83214
1.82628
1.82048
1.81472
1.80893
1.80311
1.79753
1.79192
1.78645
1.78088
1.77513
1.7688
1.76034
1.75412
1.76198
1.77976
1.74424
1.76296
1.82607
1.90118
1.99574
1.97903
2.02516
2.12273
2.24012
2.33683
2.43706
2.49993
2.49412
2.50727
2.54149
2.58341
2.62556
2.66067
2.68916
2.70475
2.71381
2.71409
2.71134
2.70721
2.70912
2.70867
2.71148
2.73147
2.73319
2.72948
2.70706
2.67206
2.60461
2.52702
2.42163
2.34638
2.25776
2.19284
2.1491
2.10366
2.07543
2.04409
2.03847
2.03127
2.02094
2.01692
2.01
2.00043
1.99522
1.98916
1.97681
1.97093
1.96521
1.95725
1.95013
1.94592
1.94097
1.93327
1.92339
1.91858
1.91325
1.90694
1.90005
1.89234
1.88526
1.87959
1.87405
1.86793
1.86113
1.85568
1.85108
1.84656
1.84192
1.83697
1.83147
1.82547
1.81997
1.81482
1.80964
1.80442
1.79911
1.79369
1.78824
1.78275
1.77724
1.77171
1.76612
1.76046
1.75481
1.74923
1.74378
1.73831
1.73282
1.7272
1.72135
1.71494
1.70693
1.6997
1.7076
1.8311
1.75723
1.74698
1.76665
1.78846
1.82953
1.82717
1.83314
1.88692
1.97498
2.06347
2.145
2.23409
2.28437
2.30457
2.35521
2.40185
2.45514
2.49325
2.53522
2.57285
2.60384
2.62378
2.64663
2.65596
2.67026
2.6863
2.69553
2.69294
2.68434
2.65366
2.57681
2.45323
2.3044
2.20951
2.10847
2.05433
1.98906
1.97046
1.95364
1.93566
1.92605
1.91853
1.92588
1.91956
1.92162
1.91886
1.91055
1.91197
1.91678
1.91975
1.91642
1.90704
1.90201
1.89991
1.89734
1.89394
1.8892
1.88572
1.88044
1.87554
1.87079
1.86466
1.85871
1.85325
1.84756
1.84174
1.83567
1.82952
1.82469
1.82042
1.81604
1.81141
1.80636
1.80076
1.79535
1.79054
1.78569
1.78069
1.77549
1.7701
1.76457
1.75949
1.75444
1.74933
1.74417
1.73888
1.73344
1.72787
1.72224
1.71664
1.71106
1.70548
1.69984
1.69408
1.68811
1.68165
1.67385
1.66585
1.67358
1.8912
1.78789
1.76296
1.75111
1.74752
1.75113
1.73683
1.71731
1.73231
1.78147
1.85371
1.91405
1.97546
2.04514
2.06615
2.09939
2.15616
2.22383
2.27752
2.33974
2.37999
2.42214
2.45945
2.50529
2.54314
2.58517
2.61154
2.64771
2.61966
2.56494
2.46039
2.29278
2.14789
2.03267
1.95368
1.88254
1.84497
1.8024
1.79262
1.78244
1.78165
1.78681
1.79886
1.82542
1.84518
1.86662
1.86048
1.85331
1.85667
1.8625
1.87697
1.87892
1.87701
1.86967
1.86669
1.86346
1.86128
1.86025
1.85889
1.8569
1.85189
1.84567
1.83913
1.83385
1.83029
1.82647
1.8216
1.8157
1.81001
1.80456
1.79953
1.79449
1.78946
1.78526
1.78101
1.77658
1.77179
1.7665
1.76079
1.75493
1.74952
1.74474
1.73996
1.73512
1.73017
1.7251
1.71985
1.71441
1.70879
1.70306
1.69733
1.69161
1.68589
1.68013
1.67426
1.66816
1.66153
1.6535
1.64496
1.65256
1.91723
1.83114
1.79492
1.75378
1.7485
1.73556
1.70973
1.6741
1.65003
1.66351
1.70014
1.74005
1.77814
1.82284
1.84724
1.86557
1.90609
1.96474
2.02698
2.08795
2.14293
2.19513
2.24487
2.30173
2.35861
2.4537
2.5049
2.538
2.47437
2.36141
2.19181
2.00248
1.91417
1.85119
1.79494
1.74724
1.71569
1.68639
1.67413
1.66409
1.66482
1.66802
1.68447
1.71131
1.74029
1.78197
1.84809
1.84465
1.83522
1.83987
1.84021
1.84374
1.85785
1.85487
1.85161
1.84763
1.84271
1.84305
1.84276
1.84133
1.83835
1.83199
1.82731
1.8234
1.81975
1.81523
1.80951
1.80244
1.79715
1.79368
1.79
1.78588
1.78126
1.77609
1.77061
1.76544
1.76042
1.75543
1.75037
1.74516
1.73964
1.73439
1.72943
1.72445
1.71942
1.71432
1.70914
1.70381
1.69829
1.69261
1.68681
1.68094
1.67504
1.66907
1.66298
1.65667
1.64987
1.64171
1.63286
1.6403
1.92268
1.86327
1.82725
1.77717
1.76229
1.74068
1.71081
1.67418
1.63423
1.61847
1.6292
1.65186
1.6691
1.68666
1.70258
1.71776
1.73316
1.76269
1.80186
1.84375
1.8913
1.94143
1.99637
2.06705
2.14361
2.27756
2.42215
2.35317
2.25714
2.12379
1.94728
1.83817
1.78477
1.73281
1.69382
1.6624
1.63936
1.61441
1.60061
1.59205
1.58896
1.59122
1.60386
1.62144
1.64562
1.68618
1.73215
1.78174
1.86235
1.84637
1.8183
1.82313
1.8266
1.8315
1.84225
1.84035
1.83644
1.83466
1.83312
1.83007
1.82851
1.82585
1.82235
1.81912
1.81366
1.80512
1.80041
1.79829
1.79557
1.79168
1.78649
1.78016
1.77402
1.76911
1.76478
1.76045
1.7559
1.75092
1.74528
1.73891
1.73286
1.72827
1.72376
1.71915
1.71439
1.70942
1.70417
1.69864
1.69288
1.687
1.68107
1.67514
1.66921
1.66321
1.65707
1.65068
1.64376
1.63545
1.6262
1.63352
1.91687
1.87255
1.84239
1.80793
1.78486
1.75595
1.72321
1.68428
1.64453
1.60776
1.60591
1.61578
1.6188
1.62639
1.63601
1.63335
1.63222
1.64006
1.65872
1.68833
1.72236
1.75806
1.80545
1.87198
1.9851
2.24253
2.22599
2.1567
2.06617
1.9521
1.82648
1.76808
1.71227
1.66275
1.6325
1.60384
1.58351
1.56801
1.56269
1.55498
1.54784
1.55088
1.55701
1.56432
1.57859
1.60159
1.62988
1.67714
1.74029
1.80666
1.87625
1.85265
1.81728
1.81503
1.81682
1.82326
1.82967
1.82835
1.82655
1.82329
1.8223
1.82079
1.81629
1.81206
1.8065
1.80176
1.79812
1.79483
1.79011
1.78408
1.77795
1.77326
1.76952
1.76563
1.76129
1.7564
1.75093
1.74502
1.73878
1.73325
1.72858
1.72387
1.71905
1.71407
1.70896
1.7037
1.69827
1.69272
1.68713
1.68148
1.67576
1.66995
1.66399
1.65785
1.65155
1.64502
1.63807
1.62982
1.62069
1.62822
1.903
1.86928
1.83919
1.82099
1.8021
1.77793
1.74616
1.70565
1.66342
1.6212
1.59738
1.59603
1.5952
1.59915
1.5967
1.59114
1.5867
1.57899
1.58232
1.59467
1.61918
1.65077
1.69787
1.77941
1.92924
2.196
2.08052
2.02215
1.94302
1.84216
1.78169
1.73534
1.68929
1.65038
1.61778
1.5871
1.56412
1.5467
1.53624
1.53157
1.53307
1.53658
1.53468
1.5321
1.53689
1.54573
1.5605
1.59279
1.63247
1.68469
1.75829
1.86739
1.85662
1.81354
1.80928
1.80413
1.80454
1.80969
1.81145
1.8087
1.8063
1.80478
1.80233
1.79852
1.79289
1.78971
1.78646
1.78101
1.77404
1.76985
1.76629
1.76267
1.75821
1.75265
1.74675
1.74181
1.73743
1.733
1.72834
1.72353
1.71867
1.71358
1.70838
1.70349
1.69859
1.69365
1.68863
1.68351
1.67827
1.67288
1.66726
1.66145
1.65549
1.64943
1.64333
1.63712
1.63054
1.62264
1.61391
1.62158
1.88498
1.86007
1.83305
1.81906
1.80443
1.78845
1.76578
1.73274
1.69176
1.64713
1.61176
1.58869
1.58659
1.58468
1.58045
1.57401
1.5651
1.55242
1.54058
1.55161
1.5691
1.59834
1.65918
1.77955
2.02635
2.07402
1.99887
1.95254
1.88476
1.81298
1.77068
1.7279
1.68732
1.65483
1.62194
1.59734
1.57892
1.5612
1.5445
1.53214
1.52426
1.52221
1.52175
1.51854
1.51997
1.52115
1.52668
1.53996
1.55292
1.58093
1.62754
1.68743
1.76904
1.8599
1.83037
1.80145
1.77295
1.77856
1.77949
1.78449
1.78213
1.78052
1.77896
1.7758
1.77348
1.77015
1.76772
1.76394
1.75715
1.75327
1.74938
1.74447
1.73925
1.73384
1.72912
1.72495
1.72091
1.71649
1.71176
1.70691
1.70208
1.69739
1.69287
1.6884
1.68382
1.6791
1.67416
1.66898
1.66358
1.65805
1.65248
1.64704
1.64156
1.63604
1.63046
1.62471
1.61852
1.61098
1.60278
1.6108
1.879
1.8533
1.82571
1.81165
1.79887
1.78691
1.76839
1.74316
1.71106
1.67384
1.63959
1.60271
1.58917
1.58606
1.58184
1.57213
1.55998
1.54755
1.5408
1.55211
1.56596
1.60632
1.70087
1.86781
2.07037
1.96609
1.94026
1.90241
1.8574
1.81687
1.77915
1.7403
1.70509
1.67709
1.65272
1.63388
1.61432
1.59344
1.57727
1.56508
1.5503
1.53359
1.5154
1.50973
1.51052
1.51326
1.51363
1.50705
1.50356
1.51384
1.53133
1.56621
1.62455
1.70265
1.83161
1.82823
1.77964
1.77271
1.75383
1.75734
1.75693
1.75997
1.76048
1.75945
1.757
1.75372
1.74994
1.74819
1.74505
1.73956
1.73193
1.7267
1.72407
1.72129
1.71787
1.71334
1.70758
1.70183
1.69817
1.69421
1.68974
1.68485
1.6799
1.67517
1.67045
1.66572
1.66092
1.65601
1.65098
1.6457
1.64006
1.63411
1.62793
1.6216
1.61546
1.6095
1.60332
1.59599
1.58808
1.59616
1.87244
1.84613
1.82002
1.80244
1.79146
1.78136
1.76554
1.74506
1.71898
1.68938
1.65977
1.63099
1.59948
1.59322
1.58725
1.5766
1.56356
1.54911
1.55437
1.56339
1.58714
1.65716
1.79837
2.05245
1.99534
1.93406
1.89412
1.8745
1.85405
1.82989
1.79921
1.76372
1.73222
1.70612
1.68446
1.66312
1.64136
1.62211
1.60549
1.58712
1.56752
1.54545
1.53558
1.52455
1.51058
1.50235
1.49122
1.48443
1.47867
1.47883
1.48035
1.49354
1.52329
1.56768
1.63872
1.72719
1.83206
1.79965
1.76952
1.73261
1.73623
1.7395
1.74726
1.7462
1.74476
1.7423
1.73788
1.73244
1.7285
1.72643
1.72428
1.72134
1.71745
1.71238
1.70685
1.70325
1.69971
1.69602
1.69178
1.68693
1.68145
1.67619
1.67137
1.66649
1.66142
1.65609
1.65093
1.64594
1.64074
1.63523
1.62932
1.62302
1.61635
1.60972
1.60359
1.59751
1.59116
1.58366
1.57533
1.5832
1.872
1.83838
1.81263
1.79077
1.77906
1.77023
1.75812
1.74156
1.71971
1.69524
1.66787
1.64457
1.61324
1.60246
1.59581
1.58405
1.57082
1.57051
1.57624
1.59241
1.64871
1.76606
2.00017
1.98267
1.91959
1.90723
1.89316
1.88069
1.86485
1.84336
1.81791
1.79014
1.76256
1.73591
1.71303
1.68869
1.66764
1.64724
1.62538
1.60501
1.58281
1.56907
1.55259
1.53278
1.51743
1.49983
1.48119
1.46937
1.46936
1.46565
1.45803
1.4593
1.46831
1.48542
1.52323
1.57951
1.65747
1.78245
1.79865
1.75993
1.7487
1.72084
1.72312
1.72746
1.7372
1.73451
1.73177
1.72679
1.72269
1.72098
1.71885
1.71575
1.71121
1.70523
1.70042
1.69714
1.69335
1.68907
1.68434
1.67903
1.67335
1.66745
1.66236
1.65746
1.65244
1.64713
1.64196
1.63692
1.63163
1.626
1.62004
1.6139
1.60766
1.60139
1.59537
1.58928
1.58295
1.5755
1.56699
1.5748
1.88166
1.83889
1.81211
1.78508
1.77293
1.76157
1.74985
1.735
1.71708
1.69633
1.6735
1.64976
1.6252
1.61092
1.59847
1.58906
1.59028
1.59631
1.60982
1.65818
1.76236
1.9826
1.98171
1.92437
1.91093
1.90753
1.90251
1.89324
1.8788
1.85939
1.8372
1.81241
1.7863
1.75958
1.73353
1.70922
1.68656
1.66395
1.64025
1.62129
1.60239
1.58243
1.56061
1.54461
1.52593
1.50429
1.49365
1.48249
1.46784
1.45018
1.44682
1.44116
1.44628
1.44785
1.46047
1.48179
1.52566
1.59159
1.67723
1.81196
1.79532
1.75298
1.73174
1.70924
1.71351
1.71393
1.71512
1.71641
1.71601
1.71332
1.70599
1.69998
1.69718
1.69384
1.68967
1.68557
1.68114
1.67654
1.67232
1.66801
1.66344
1.65838
1.65275
1.64694
1.6414
1.63623
1.63116
1.62609
1.62099
1.61574
1.61025
1.60448
1.59859
1.59278
1.58695
1.58099
1.57475
1.56746
1.55887
1.56672
1.87998
1.83726
1.80605
1.775
1.76342
1.75346
1.74235
1.72925
1.7137
1.69534
1.67543
1.65248
1.63578
1.61908
1.59736
1.60401
1.61262
1.62415
1.66883
1.76651
1.97098
1.9941
1.93945
1.91452
1.91373
1.91125
1.90617
1.89682
1.88323
1.86617
1.84665
1.82484
1.80148
1.77602
1.74941
1.72494
1.7
1.67476
1.65462
1.63422
1.61348
1.59037
1.57205
1.55507
1.53583
1.52151
1.50557
1.49035
1.4768
1.46412
1.45131
1.43604
1.43765
1.43433
1.43535
1.43623
1.45086
1.48436
1.53887
1.61808
1.71286
1.78862
1.7582
1.73386
1.68963
1.69244
1.69817
1.70549
1.70646
1.70644
1.70427
1.6945
1.68372
1.68214
1.68002
1.67747
1.67409
1.66935
1.66385
1.65717
1.6532
1.6489
1.64404
1.63844
1.63217
1.62581
1.62112
1.6165
1.61182
1.60681
1.60142
1.59571
1.5894
1.58385
1.57816
1.57228
1.5661
1.559
1.55034
1.5582
1.88337
1.83846
1.80755
1.77628
1.75798
1.74987
1.73882
1.72572
1.71108
1.695
1.67777
1.65691
1.63707
1.61026
1.60937
1.6195
1.63353
1.67577
1.7681
1.95097
2.00684
1.94502
1.93074
1.91651
1.91053
1.90549
1.89989
1.89188
1.88082
1.86604
1.84829
1.8283
1.80628
1.78316
1.75899
1.73435
1.70904
1.68715
1.66721
1.64524
1.62342
1.60357
1.58653
1.56794
1.55298
1.53559
1.51806
1.50349
1.48975
1.47476
1.46152
1.45028
1.43824
1.42354
1.42484
1.41955
1.42356
1.43265
1.45329
1.49098
1.54907
1.62852
1.76686
1.76197
1.7177
1.70967
1.67962
1.68137
1.68554
1.69168
1.69059
1.68772
1.68142
1.67137
1.66884
1.66812
1.66603
1.66232
1.65722
1.65135
1.6451
1.63998
1.63468
1.62884
1.62287
1.6164
1.612
1.60815
1.60368
1.59833
1.59234
1.58644
1.5802
1.57407
1.56841
1.56259
1.55643
1.54947
1.5405
1.54833
1.88303
1.85019
1.81875
1.78937
1.76385
1.75462
1.74129
1.72513
1.71145
1.69597
1.67909
1.66058
1.63986
1.61616
1.62569
1.64024
1.6749
1.76282
1.9265
2.01695
1.94732
1.93925
1.92624
1.9113
1.90246
1.89567
1.88841
1.87993
1.86967
1.85691
1.84147
1.82345
1.80351
1.78246
1.76038
1.73754
1.7137
1.69483
1.67425
1.65319
1.6313
1.61474
1.59697
1.57865
1.56138
1.54147
1.52824
1.51352
1.49834
1.48354
1.46927
1.45571
1.44079
1.43219
1.42404
1.41497
1.40862
1.41006
1.41059
1.42134
1.44543
1.49515
1.56917
1.6564
1.7713
1.74926
1.71382
1.68823
1.65969
1.66226
1.66803
1.67606
1.67531
1.67307
1.66658
1.65829
1.65513
1.65127
1.64702
1.64242
1.63684
1.63112
1.62561
1.61869
1.61286
1.60796
1.60339
1.59945
1.59489
1.58948
1.58268
1.57661
1.57053
1.5644
1.55876
1.55273
1.54625
1.539
1.52979
1.53787
1.94737
1.86537
1.82672
1.78981
1.76158
1.75384
1.74313
1.72416
1.71101
1.69709
1.68017
1.66189
1.63651
1.63828
1.65175
1.67898
1.75795
1.8936
2.01567
1.93928
1.93683
1.92704
1.91126
1.90194
1.89146
1.88105
1.87003
1.8618
1.85338
1.84415
1.83294
1.81926
1.80308
1.78467
1.76421
1.74346
1.7221
1.70119
1.67919
1.66054
1.64136
1.62338
1.60504
1.58696
1.56743
1.55235
1.53574
1.52023
1.50451
1.49045
1.47672
1.46248
1.44773
1.43651
1.42394
1.41144
1.39647
1.39412
1.39271
1.39535
1.39958
1.41862
1.45479
1.50545
1.58202
1.68888
1.73481
1.69929
1.68528
1.64885
1.64882
1.65665
1.66013
1.66016
1.6585
1.65257
1.6455
1.63678
1.6333
1.6298
1.62571
1.6205
1.61519
1.60783
1.60047
1.59719
1.59355
1.58924
1.58441
1.57888
1.57153
1.56489
1.55911
1.55286
1.54727
1.5413
1.53488
1.52756
1.51879
1.52722
1.95959
1.888
1.8387
1.79943
1.76398
1.74616
1.74297
1.72722
1.70965
1.69781
1.68266
1.66087
1.65096
1.66542
1.68933
1.76387
1.89128
2.02128
1.94108
1.93763
1.92614
1.90764
1.90252
1.89462
1.88469
1.87301
1.86073
1.853
1.84517
1.83673
1.82697
1.81545
1.80166
1.78605
1.7686
1.74979
1.72997
1.70878
1.68879
1.66936
1.65082
1.63144
1.61316
1.59469
1.5781
1.56129
1.54359
1.52848
1.51439
1.50037
1.486
1.47297
1.45958
1.44531
1.43084
1.41843
1.40376
1.39527
1.3852
1.38508
1.38353
1.38524
1.39605
1.41392
1.46029
1.52339
1.59795
1.72638
1.72161
1.685
1.67135
1.63654
1.63706
1.64557
1.64505
1.64362
1.63962
1.63349
1.62529
1.61993
1.61549
1.61163
1.60688
1.60075
1.59229
1.58838
1.58386
1.57899
1.57404
1.56849
1.56202
1.55394
1.54805
1.54219
1.5373
1.53186
1.52574
1.51803
1.5087
1.51707
2.04509
1.94731
1.8471
1.81224
1.77502
1.74643
1.74186
1.73193
1.71314
1.69445
1.68786
1.67404
1.68181
1.70159
1.77161
1.89809
2.03691
1.95774
1.95136
1.93475
1.9117
1.90843
1.90243
1.8941
1.8838
1.86985
1.8592
1.85041
1.84154
1.8325
1.82312
1.81274
1.80101
1.78754
1.77237
1.75536
1.73724
1.71799
1.69835
1.67859
1.65943
1.64094
1.62327
1.6055
1.58793
1.56975
1.55399
1.53809
1.52248
1.50866
1.49464
1.4813
1.46722
1.45266
1.43777
1.42461
1.41164
1.40168
1.39008
1.37779
1.37018
1.37247
1.37911
1.38021
1.392
1.41662
1.46614
1.54232
1.62498
1.72593
1.69404
1.66791
1.63767
1.61674
1.62091
1.63024
1.63193
1.63001
1.62483
1.61826
1.60887
1.60128
1.59697
1.59151
1.5844
1.58014
1.57587
1.57083
1.5645
1.55798
1.55119
1.54433
1.53924
1.53431
1.52936
1.52387
1.51761
1.50953
1.50006
1.50836
2.22239
1.94004
1.88913
1.82662
1.79399
1.75703
1.7348
1.73124
1.71494
1.69323
1.69721
1.70597
1.72512
1.78757
1.90786
2.0531
1.97304
1.96891
1.94903
1.92128
1.91814
1.91154
1.90312
1.893
1.88127
1.86894
1.85824
1.84872
1.83963
1.83049
1.82093
1.81081
1.79974
1.78739
1.77377
1.75873
1.74246
1.72491
1.70659
1.68722
1.66842
1.64986
1.63222
1.61439
1.59695
1.57997
1.56341
1.54712
1.53096
1.51668
1.50342
1.48959
1.47628
1.46388
1.45125
1.43862
1.42688
1.41441
1.40257
1.39104
1.38298
1.37412
1.37112
1.36672
1.36706
1.37266
1.3951
1.42873
1.48107
1.56454
1.66601
1.69928
1.65873
1.64872
1.61813
1.61418
1.61651
1.62245
1.62106
1.61415
1.60597
1.59651
1.58566
1.5814
1.57702
1.57354
1.56935
1.56386
1.55568
1.54584
1.54097
1.53697
1.53289
1.52795
1.52187
1.51612
1.51
1.50243
1.49279
1.50066
2.44593
2.08488
1.9146
1.84303
1.79902
1.76825
1.73591
1.72605
1.71188
1.70678
1.71812
1.74205
1.81283
1.93672
2.08468
1.99747
1.98879
1.96333
1.92867
1.92809
1.92177
1.91325
1.90288
1.89142
1.87934
1.86916
1.8588
1.84791
1.8383
1.82923
1.81973
1.80976
1.79924
1.78782
1.77538
1.76165
1.74665
1.73051
1.71321
1.69534
1.67667
1.65843
1.64022
1.62246
1.60517
1.5877
1.57083
1.55425
1.53869
1.52335
1.50896
1.4949
1.48108
1.46966
1.4587
1.44599
1.43167
1.41937
1.40876
1.39756
1.38969
1.38178
1.37275
1.36151
1.36274
1.36106
1.36297
1.37
1.39262
1.43201
1.50053
1.59629
1.72564
1.69703
1.65947
1.63805
1.6064
1.60418
1.60586
1.60805
1.60534
1.59863
1.58675
1.57673
1.5717
1.56803
1.56407
1.55902
1.55225
1.54377
1.53449
1.53003
1.52612
1.52105
1.51464
1.50737
1.50105
1.49391
1.48375
1.49161
2.2981
2.25694
1.95343
1.88253
1.8076
1.78064
1.75082
1.71739
1.71892
1.73152
1.75265
1.8233
1.95935
2.13187
2.03831
2.02523
1.99176
1.94809
1.94713
1.94205
1.93371
1.92268
1.90977
1.89579
1.88504
1.87392
1.86263
1.85126
1.83982
1.82986
1.81983
1.80936
1.79833
1.78664
1.77424
1.76094
1.74676
1.73156
1.71551
1.69872
1.68147
1.66389
1.64633
1.62881
1.61133
1.5941
1.57726
1.5604
1.5453
1.53009
1.51478
1.49925
1.4856
1.47217
1.45942
1.44618
1.4351
1.42382
1.4133
1.40262
1.39459
1.38614
1.37833
1.37181
1.36381
1.35253
1.35443
1.35388
1.35469
1.36796
1.41208
1.47224
1.5536
1.65254
1.70813
1.66409
1.64865
1.62541
1.59711
1.59653
1.59998
1.59673
1.58909
1.57952
1.5736
1.56721
1.56209
1.55656
1.55019
1.54199
1.53306
1.5238
1.52017
1.51616
1.51029
1.50197
1.4929
1.48539
1.47604
1.48398
1.53671
2.34317
2.15439
1.88582
1.8463
1.79095
1.76063
1.72921
1.74311
1.76588
1.83791
1.97699
2.1663
2.06884
2.05517
2.01655
1.96747
1.96514
1.96113
1.95288
1.94091
1.92638
1.91043
1.89932
1.8876
1.87525
1.86279
1.85052
1.83805
1.82585
1.81472
1.80361
1.79228
1.78064
1.76867
1.75622
1.74316
1.72952
1.71527
1.70044
1.68492
1.6688
1.6521
1.63492
1.6174
1.60049
1.58356
1.56741
1.55231
1.53782
1.52352
1.50964
1.49621
1.48303
1.46941
1.45923
1.44841
1.43807
1.42692
1.418
1.41016
1.40221
1.3966
1.39
1.38242
1.37525
1.36688
1.35381
1.35613
1.36327
1.37324
1.39624
1.43976
1.51342
1.60177
1.73957
1.71687
1.67256
1.64839
1.61177
1.59903
1.60105
1.60233
1.59741
1.58822
1.57981
1.5699
1.56079
1.55209
1.54206
1.53244
1.52631
1.52052
1.51519
1.50887
1.50161
1.49301
1.48358
1.47321
1.4803
1.15872
1.79185
2.39656
2.05793
1.87376
1.81039
1.76091
1.76238
1.77959
1.85126
1.99936
2.19824
2.09445
2.07349
2.02942
1.97852
1.97667
1.97328
1.96511
1.95297
1.93788
1.91978
1.90808
1.896
1.88314
1.86987
1.85687
1.84468
1.83266
1.82049
1.80876
1.79761
1.78643
1.77503
1.76333
1.75128
1.73878
1.72572
1.71212
1.69808
1.68362
1.66856
1.65287
1.6365
1.61943
1.60208
1.58604
1.57059
1.55595
1.54227
1.529
1.51604
1.50377
1.4915
1.48083
1.47026
1.45964
1.44974
1.43987
1.43084
1.42317
1.41866
1.41331
1.40777
1.40216
1.39641
1.39033
1.38448
1.3732
1.36813
1.3759
1.38365
1.3996
1.44481
1.50793
1.5896
1.70138
1.75074
1.71791
1.6902
1.65905
1.62024
1.61489
1.61345
1.6087
1.60108
1.59171
1.58044
1.56698
1.54956
1.53985
1.53448
1.52831
1.52125
1.51418
1.50654
1.49766
1.48652
1.47424
1.48088
1.05077
1.31995
2.29291
2.24533
1.94857
1.86159
1.77641
1.79311
1.86788
2.02717
2.24186
2.12984
2.09486
2.04047
1.99033
1.99034
1.98822
1.98059
1.96845
1.95309
1.93366
1.92115
1.9079
1.89439
1.88095
1.86748
1.85479
1.84243
1.83026
1.81809
1.8058
1.7936
1.78188
1.77033
1.75873
1.74697
1.73492
1.7226
1.71009
1.69739
1.68437
1.67094
1.65684
1.64202
1.62633
1.61114
1.59612
1.58224
1.56856
1.55541
1.54319
1.53083
1.51983
1.50873
1.49935
1.49018
1.48169
1.47298
1.46555
1.45799
1.45226
1.44879
1.44511
1.44286
1.43993
1.43749
1.43513
1.432
1.42778
1.42076
1.41742
1.42489
1.43721
1.45172
1.48186
1.52025
1.58108
1.66615
1.81164
1.79523
1.73995
1.7174
1.68312
1.65429
1.6438
1.63586
1.62514
1.6127
1.59675
1.57593
1.56414
1.55729
1.54981
1.54124
1.53188
1.52185
1.51061
1.49581
1.4828
1.4886
1.01026
1.07889
1.45075
2.18984
2.07846
1.85079
1.82642
1.88426
2.06119
2.29405
2.17654
2.1228
2.04629
2.0083
2.00829
2.00703
2.00036
1.98911
1.97346
1.95407
1.93853
1.92503
1.91033
1.89528
1.88155
1.86772
1.85371
1.8406
1.82799
1.81566
1.80331
1.79076
1.77801
1.76619
1.75479
1.74352
1.73223
1.72086
1.70936
1.6976
1.6857
1.67354
1.66089
1.64768
1.63389
1.62029
1.60746
1.59527
1.58297
1.57162
1.56099
1.55101
1.54167
1.53469
1.52772
1.52212
1.51646
1.51143
1.50638
1.50111
1.49759
1.49786
1.49797
1.49824
1.49796
1.49728
1.49641
1.49469
1.49125
1.48445
1.4764
1.47337
1.47647
1.48243
1.49063
1.50224
1.53331
1.57953
1.65672
1.79713
1.83523
1.8011
1.75966
1.73144
1.69294
1.67538
1.66893
1.65805
1.64358
1.62403