/*--------------------------------*- C++ -*----------------------------------*\
| =========                 |                                                 |
| \\      /  F ield         | OpenFOAM: The Open Source CFD Toolbox           |
|  \\    /   O peration     | Version:  v2106                                 |
|   \\  /    A nd           | Website:  www.openfoam.com                      |
|    \\/     M anipulation  |                                                 |
\*---------------------------------------------------------------------------*/
FoamFile
{
    version     2.0;
    format      ascii;
    arch        "LSB;label=32;scalar=64";
    class       volVectorField;
    location    "7";
    object      U;
}
// * * * * * * * * * * * * * * * * * * * * * * * * * * * * * * * * * * * * * //

dimensions      [0 1 -1 0 0 0 0];

internalField   nonuniform List<vector> 
5250
(
(3 2.68803e-14 0)
(3 -5.27486e-13 0)
(3 7.44792e-13 0)
(3 -1.32318e-11 0)
(3 -1.75654e-10 0)
(3 -2.05221e-09 0)
(3 6.20039e-09 0)
(3 -7.55958e-08 0)
(3.00001 2.66598e-07 0)
(2.99995 -4.32767e-06 0)
(3.00052 6.57756e-06 0)
(2.99877 -0.000128204 0)
(3.02806 -0.00260939 0)
(3.02859 0.00385347 0)
(2.5099 0.00866602 0)
(0.804586 0.0372988 0)
(0.48415 0.0184151 0)
(0.548282 0.0232327 0)
(0.487377 0.0250367 0)
(0.410464 0.0248132 0)
(0.355536 0.0335243 0)
(0.283263 0.0296229 0)
(0.208239 0.0308596 0)
(0.126913 0.03448 0)
(0.0468092 0.0384676 0)
(3 -1.213e-14 0)
(3 4.41324e-13 0)
(3 2.24988e-12 0)
(3 1.45456e-11 0)
(3 2.03841e-10 0)
(3 -3.38642e-09 0)
(3 1.10482e-08 0)
(3 -1.03537e-07 0)
(3 2.11161e-06 0)
(3.00001 -4.23259e-06 0)
(3.00017 1.76841e-05 0)
(3.00055 5.72849e-05 0)
(3.01612 -0.00726379 0)
(3.03189 0.0111661 0)
(2.52092 0.0282087 0)
(0.816156 0.112136 0)
(0.467496 0.0474712 0)
(0.542748 0.0586858 0)
(0.480986 0.0627146 0)
(0.405235 0.070472 0)
(0.356365 0.0712671 0)
(0.278183 0.0861958 0)
(0.201557 0.0967556 0)
(0.124579 0.0988847 0)
(0.043265 0.106446 0)
(3 -3.71597e-14 0)
(3 8.71632e-13 0)
(3 1.46482e-12 0)
(3 5.83976e-11 0)
(3 2.10477e-09 0)
(3 -1.2764e-09 0)
(3 1.39702e-08 0)
(3 -9.16638e-09 0)
(3 1.08285e-07 0)
(3.00001 3.09229e-06 0)
(3.00014 2.71926e-06 0)
(3.00074 0.000312754 0)
(3.01297 -0.00156853 0)
(3.0396 0.0180989 0)
(2.54976 0.0493509 0)
(0.855746 0.197827 0)
(0.439738 0.0821232 0)
(0.536156 0.102681 0)
(0.471018 0.110561 0)
(0.398442 0.112842 0)
(0.343379 0.138634 0)
(0.267593 0.150862 0)
(0.203755 0.154609 0)
(0.125714 0.164564 0)
(0.042813 0.177037 0)
(3 9.60331e-15 0)
(3 2.26952e-14 0)
(3 3.07715e-14 0)
(3 5.20275e-12 0)
(3 -1.4534e-10 0)
(3 4.84216e-10 0)
(3 4.67855e-09 0)
(3 3.51765e-08 0)
(3 3.76547e-07 0)
(3.00001 3.52874e-06 0)
(3.00011 2.04339e-05 0)
(3.00074 0.000351232 0)
(3.01067 0.000701614 0)
(3.05012 0.0242696 0)
(2.59834 0.0706284 0)
(0.938206 0.290695 0)
(0.401401 0.110434 0)
(0.526757 0.137784 0)
(0.457421 0.149084 0)
(0.386403 0.161836 0)
(0.341158 0.18267 0)
(0.278896 0.196981 0)
(0.211479 0.213917 0)
(0.129826 0.23331 0)
(0.0452025 0.248493 0)
(3 -4.31491e-14 0)
(3 8.7935e-14 0)
(3 2.02162e-12 0)
(3 -5.66314e-12 0)
(3 1.67514e-10 0)
(3 1.46363e-10 0)
(3 7.97909e-09 0)
(3 1.45895e-08 0)
(3 5.65615e-07 0)
(3.00001 2.22687e-06 0)
(3.00007 3.96536e-05 0)
(3.00077 0.000281832 0)
(3.00729 0.00262585 0)
(3.06187 0.028643 0)
(2.66609 0.0832667 0)
(1.07879 0.396128 0)
(0.359186 0.154803 0)
(0.522887 0.177061 0)
(0.444946 0.191305 0)
(0.382516 0.19801 0)
(0.343258 0.226384 0)
(0.283725 0.253235 0)
(0.210565 0.275907 0)
(0.133802 0.303409 0)
(0.0429006 0.323518 0)
(3 -8.54213e-14 0)
(3 1.00724e-13 0)
(3 1.00316e-12 0)
(3 2.57178e-12 0)
(3 9.01441e-11 0)
(3 1.20941e-10 0)
(3 8.18684e-09 0)
(3 -7.24628e-09 0)
(3 6.65925e-07 0)
(3.00001 -2.01518e-06 0)
(3.00004 4.79248e-05 0)
(3.00081 2.76814e-05 0)
(3.00403 0.00321522 0)
(3.06922 0.027367 0)
(2.75128 0.0701755 0)
(1.32033 0.49568 0)
(0.343549 0.204999 0)
(0.53425 0.216443 0)
(0.450799 0.230097 0)
(0.383402 0.235821 0)
(0.34448 0.270283 0)
(0.287728 0.307344 0)
(0.213982 0.341722 0)
(0.137173 0.376559 0)
(0.0512099 0.400135 0)
(3 -1.03308e-13 0)
(3 7.45186e-14 0)
(3 -1.49673e-13 0)
(3 -1.32883e-11 0)
(3 1.66097e-10 0)
(3 -1.21114e-10 0)
(3 9.60392e-09 0)
(3 1.5649e-08 0)
(3 7.09526e-07 0)
(3.00001 -5.603e-07 0)
(3.00003 5.70247e-05 0)
(3.0006 -0.000437987 0)
(3.00178 0.00292203 0)
(3.06855 0.0234965 0)
(2.82372 0.0467313 0)
(1.66851 0.572162 0)
(0.368237 0.278754 0)
(0.561037 0.263828 0)
(0.47626 0.277361 0)
(0.391674 0.276711 0)
(0.360062 0.309447 0)
(0.294256 0.359804 0)
(0.243976 0.398393 0)
(0.150121 0.446241 0)
(0.0722118 0.487424 0)
(3 -3.4304e-14 0)
(3 1.44937e-13 0)
(3 -1.03836e-12 0)
(3 4.26787e-12 0)
(3 -6.74035e-11 0)
(3 -1.5824e-10 0)
(3 9.81224e-09 0)
(3 2.39451e-08 0)
(3 5.57381e-07 0)
(3.00001 2.69782e-06 0)
(2.99998 3.51836e-05 0)
(3.00075 0.000242149 0)
(3.00002 0.00227638 0)
(3.06385 0.019103 0)
(2.88145 0.0279016 0)
(2.05317 0.569795 0)
(0.463592 0.384547 0)
(0.61341 0.330332 0)
(0.532204 0.333605 0)
(0.430566 0.324371 0)
(0.38585 0.352996 0)
(0.311952 0.417981 0)
(0.261883 0.470255 0)
(0.171406 0.532897 0)
(0.0732316 0.595197 0)
(3 1.86192e-14 0)
(3 8.01018e-14 0)
(3 1.96478e-12 0)
(3 1.20713e-11 0)
(3 -9.27078e-11 0)
(3 1.8624e-10 0)
(3 5.26814e-09 0)
(3 1.59095e-08 0)
(3 2.90655e-07 0)
(3.00002 1.73295e-06 0)
(2.99993 2.11758e-05 0)
(3.00091 0.000167004 0)
(2.99887 0.00167245 0)
(3.05534 0.0157374 0)
(2.92781 0.0418404 0)
(2.24773 0.466134 0)
(0.598801 0.466288 0)
(0.671257 0.410477 0)
(0.604211 0.40272 0)
(0.501985 0.387499 0)
(0.41996 0.413521 0)
(0.371164 0.460999 0)
(0.31694 0.530389 0)
(0.232189 0.608354 0)
(0.14635 0.722508 0)
(3 2.34719e-14 0)
(3 8.46275e-15 0)
(3 1.70072e-12 0)
(3 3.98953e-12 0)
(3 -2.00885e-10 0)
(3 6.96031e-10 0)
(3 1.05151e-09 0)
(3 2.75103e-08 0)
(3 1.69579e-07 0)
(3.00002 2.04849e-06 0)
(2.99993 1.56662e-05 0)
(3.00079 0.000164217 0)
(2.99851 0.00140278 0)
(3.04427 0.0137632 0)
(2.97574 0.0625731 0)
(2.3987 0.368083 0)
(0.694271 0.54099 0)
(0.725296 0.478649 0)
(0.682274 0.466316 0)
(0.587245 0.474262 0)
(0.494607 0.47451 0)
(0.430616 0.525755 0)
(0.359929 0.612772 0)
(0.304094 0.718978 0)
(0.0962022 0.958987 0)
(3 1.63299e-14 0)
(3 4.28193e-14 0)
(3 1.36706e-12 0)
(3 7.0583e-12 0)
(3 -1.31578e-11 0)
(3 4.98522e-10 0)
(3 -3.26193e-09 0)
(3 3.16883e-08 0)
(3 -2.92115e-08 0)
(3.00002 1.92523e-06 0)
(2.99994 5.43103e-06 0)
(3.00064 0.000137209 0)
(2.99853 0.000820532 0)
(3.03398 0.0113538 0)
(3.01633 0.0689446 0)
(2.53904 0.297805 0)
(0.842419 0.591241 0)
(0.703654 0.493644 0)
(0.718496 0.521802 0)
(0.672016 0.54503 0)
(0.58851 0.547544 0)
(0.513712 0.59509 0)
(0.450518 0.685131 0)
(0.483316 0.811696 0)
(0.42095 1.14049 0)
(3 2.33822e-14 0)
(3 8.64515e-15 0)
(3 9.95809e-13 0)
(3 6.27458e-12 0)
(3 7.36244e-11 0)
(3 5.03636e-10 0)
(3 -1.59637e-09 0)
(3 5.09713e-08 0)
(3 -1.23632e-07 0)
(3 2.22541e-06 0)
(3.00002 -6.44164e-06 0)
(3.00008 0.000116739 0)
(3.00122 0.000786128 0)
(3.01251 0.00110702 0)
(3.05031 0.068207 0)
(2.67846 0.264252 0)
(1.06997 0.669558 0)
(0.659039 0.502404 0)
(0.723906 0.528263 0)
(0.728674 0.623688 0)
(0.687905 0.627205 0)
(0.613009 0.667594 0)
(0.573029 0.739506 0)
(0.689347 0.847751 0)
(0.678954 1.03515 0)
(3 -5.30964e-15 0)
(3 4.72072e-14 0)
(3 7.33896e-14 0)
(3 3.08546e-12 0)
(3 1.69919e-11 0)
(3 2.36699e-11 0)
(3 1.90853e-09 0)
(3 3.71458e-08 0)
(3 -4.82974e-07 0)
(3 1.69277e-06 0)
(3.00001 -2.28251e-05 0)
(3.00004 0.000126339 0)
(3.00084 -0.00160902 0)
(3.00252 0.00677305 0)
(3.07499 0.0539686 0)
(2.82936 0.213799 0)
(1.46369 0.763409 0)
(0.598807 0.520526 0)
(0.710945 0.539748 0)
(0.733529 0.623158 0)
(0.749811 0.679539 0)
(0.721242 0.726576 0)
(0.702691 0.765857 0)
(0.783646 0.856797 0)
(0.876923 0.904683 0)
(3 1.02475e-15 0)
(3 1.02296e-14 0)
(3 -4.04453e-14 0)
(3 1.43545e-12 0)
(3 8.67488e-13 0)
(3 5.40127e-10 0)
(3 -1.58524e-09 0)
(3 1.2518e-08 0)
(3 6.05789e-08 0)
(3 6.47303e-07 0)
(2.99999 5.79243e-06 0)
(3.00013 6.07527e-05 0)
(3 1.56673e-05 0)
(2.99995 0.00414515 0)
(3.06548 0.0343132 0)
(2.93975 0.122213 0)
(2.07205 0.829144 0)
(0.661115 0.585817 0)
(0.734417 0.562933 0)
(0.749545 0.619271 0)
(0.76866 0.682337 0)
(0.794768 0.753705 0)
(0.8111 0.789225 0)
(0.875701 0.840596 0)
(0.960122 0.866079 0)
(3 -1.70255e-15 0)
(3 -3.27532e-14 0)
(3 1.41646e-13 0)
(3 3.69644e-13 0)
(3 -2.29764e-12 0)
(3 4.02373e-11 0)
(3 1.7894e-10 0)
(3 6.27651e-09 0)
(3 6.12335e-09 0)
(3 4.66062e-07 0)
(3.00001 -1.12865e-06 0)
(2.99998 3.17106e-05 0)
(3.00076 0.000183646 0)
(2.99837 0.00219554 0)
(3.0482 0.0226269 0)
(2.98526 0.0909077 0)
(2.44742 0.703785 0)
(0.866206 0.687857 0)
(0.79723 0.607591 0)
(0.790593 0.628046 0)
(0.801649 0.677697 0)
(0.833705 0.745361 0)
(0.877883 0.794323 0)
(0.948831 0.842353 0)
(1.02872 0.852246 0)
(3 3.32097e-16 0)
(3 1.81437e-14 0)
(3 1.58011e-13 0)
(3 1.04288e-12 0)
(3 1.33672e-11 0)
(3 1.22703e-10 0)
(3 7.41175e-10 0)
(3 -9.96132e-10 0)
(3 4.01404e-08 0)
(3 1.63344e-07 0)
(3.00001 2.17955e-06 0)
(2.99996 1.7399e-05 0)
(3.00055 0.000204038 0)
(2.99885 0.00142166 0)
(3.03043 0.0166964 0)
(3.02668 0.105448 0)
(2.68826 0.545165 0)
(1.17632 0.793593 0)
(0.845258 0.658922 0)
(0.845666 0.659314 0)
(0.848186 0.690153 0)
(0.874015 0.742941 0)
(0.926278 0.786813 0)
(0.999165 0.833597 0)
(1.08712 0.840087 0)
(3 2.38602e-15 0)
(3 1.34535e-14 0)
(3 -4.70313e-14 0)
(3 1.12117e-12 0)
(3 1.11525e-12 0)
(3 7.22057e-11 0)
(3 6.04366e-10 0)
(3 -1.71646e-09 0)
(3 4.79338e-08 0)
(3 -1.2172e-08 0)
(3 1.96489e-06 0)
(3.00001 2.9966e-06 0)
(3.00009 0.000125932 0)
(3.00069 0.000530875 0)
(3.00668 0.00842316 0)
(3.07278 0.0767704 0)
(2.88912 0.398778 0)
(1.66478 0.888096 0)
(0.851203 0.699742 0)
(0.876382 0.693839 0)
(0.892647 0.713166 0)
(0.912816 0.751815 0)
(0.957891 0.783643 0)
(1.02795 0.816177 0)
(1.11157 0.830305 0)
(3 3.5574e-16 0)
(3 2.30233e-15 0)
(3 3.13584e-14 0)
(3 1.70567e-13 0)
(3 2.32319e-12 0)
(3 1.59701e-11 0)
(3 1.71641e-10 0)
(3 1.05755e-09 0)
(3 1.28628e-08 0)
(3 1.03036e-07 0)
(3 9.69944e-07 0)
(3.00003 8.37303e-06 0)
(2.99987 7.51452e-05 0)
(3.00151 0.000645218 0)
(2.99694 0.00570203 0)
(3.08392 0.0483145 0)
(3.01251 0.236991 0)
(2.28924 0.954936 0)
(0.964829 0.773857 0)
(0.927101 0.727727 0)
(0.935139 0.725435 0)
(0.95604 0.747134 0)
(0.995385 0.771899 0)
(1.05949 0.79612 0)
(1.13312 0.814994 0)
(3 -4.26086e-15 0)
(3 7.43769e-15 0)
(3 1.58004e-13 0)
(3 -3.61234e-14 0)
(3 4.37053e-12 0)
(3 -1.35063e-11 0)
(3 2.53088e-10 0)
(3 2.24669e-09 0)
(3 -1.97992e-09 0)
(3 7.60368e-08 0)
(3 -1.17711e-07 0)
(3 4.94677e-06 0)
(3.00002 2.31717e-05 0)
(3.00026 3.27356e-05 0)
(3.00139 0.00380006 0)
(3.0242 -0.0480294 0)
(3.05224 0.174491 0)
(2.69207 0.781493 0)
(1.28787 0.862978 0)
(0.984501 0.757776 0)
(0.983385 0.742529 0)
(1.00094 0.754077 0)
(1.03332 0.771975 0)
(1.08738 0.789314 0)
(1.15441 0.802346 0)
(3 -5.46361e-17 0)
(3 1.05275e-15 0)
(3 -7.41456e-16 0)
(3 5.61482e-15 0)
(3 1.01776e-12 0)
(3 3.03278e-12 0)
(3 5.5803e-11 0)
(3 2.86431e-10 0)
(3 2.7881e-09 0)
(3 4.47571e-08 0)
(3 2.60572e-07 0)
(2.99999 3.0672e-06 0)
(3.00011 2.23413e-05 0)
(2.99947 0.000217478 0)
(3.00425 0.00169159 0)
(2.98947 0.0154878 0)
(3.09961 0.109187 0)
(2.95241 0.571249 0)
(1.81978 0.950635 0)
(1.01711 0.800816 0)
(1.02611 0.76788 0)
(1.0429 0.77298 0)
(1.0719 0.780247 0)
(1.1172 0.787775 0)
(1.17594 0.794569 0)
(3 1.88529e-16 0)
(3 -5.18298e-16 0)
(3 2.91972e-14 0)
(3 9.4547e-14 0)
(3 1.96266e-12 0)
(3 1.31351e-11 0)
(3 8.75093e-12 0)
(3 6.19062e-10 0)
(3 1.59921e-09 0)
(3 3.94666e-08 0)
(3 2.47057e-07 0)
(3 -1.15901e-07 0)
(3.00003 1.22686e-05 0)
(2.99991 3.26848e-05 0)
(3.00133 0.000765723 0)
(2.99952 0.00439524 0)
(3.07369 0.054969 0)
(3.05103 0.347057 0)
(2.42342 1.01278 0)
(1.17849 0.867278 0)
(1.07513 0.823818 0)
(1.08222 0.786898 0)
(1.10528 0.786222 0)
(1.14579 0.788035 0)
(1.19845 0.790714 0)
(3 1.67535e-16 0)
(3 7.68617e-16 0)
(3 1.7437e-14 0)
(3 1.18722e-13 0)
(3 1.2904e-13 0)
(3 5.21139e-12 0)
(3 2.12032e-11 0)
(3 3.50255e-10 0)
(3 2.38901e-09 0)
(3 3.54908e-10 0)
(3 1.10669e-07 0)
(3 2.43131e-07 0)
(3 -2.25827e-06 0)
(3.00001 3.02493e-05 0)
(3.00025 0.000176617 0)
(3.00131 0.00237419 0)
(3.01807 0.0171699 0)
(3.12671 0.191087 0)
(2.85785 0.809446 0)
(1.59963 0.946446 0)
(1.13925 0.842895 0)
(1.13019 0.802199 0)
(1.14791 0.795135 0)
(1.18074 0.791764 0)
(1.22511 0.790158 0)
(3 7.0313e-17 0)
(3 -6.59595e-17 0)
(3 3.61618e-15 0)
(3 6.79595e-15 0)
(3 1.6685e-13 0)
(3 7.73073e-13 0)
(3 8.54573e-12 0)
(3 4.29666e-11 0)
(3 5.67037e-10 0)
(3 3.18257e-09 0)
(3 3.75605e-08 0)
(3 2.55971e-07 0)
(2.99999 2.53845e-06 0)
(3.00005 1.97803e-05 0)
(2.99985 0.000182937 0)
(3.00205 0.00149121 0)
(2.99931 0.013135 0)
(3.11799 0.108008 0)
(3.06747 0.561985 0)
(2.24582 1.03472 0)
(1.2003 0.885756 0)
(1.1724 0.836969 0)
(1.18384 0.821378 0)
(1.209 0.810144 0)
(1.24807 0.799937 0)
(3 7.50757e-17 0)
(3 -6.2864e-16 0)
(3 1.36296e-15 0)
(3 6.00462e-15 0)
(3 9.80841e-15 0)
(3 3.87118e-13 0)
(3 -3.05425e-12 0)
(3 3.26834e-11 0)
(3 4.87626e-11 0)
(3 2.62736e-09 0)
(3 -7.2918e-09 0)
(3 2.03095e-07 0)
(3 2.85137e-08 0)
(3.00001 6.8783e-06 0)
(3.00003 4.08537e-05 0)
(3.00041 0.000265046 0)
(3.00223 0.00426013 0)
(3.03411 0.0184418 0)
(3.15988 0.302156 0)
(2.79944 0.969155 0)
(1.54566 0.960391 0)
(1.23194 0.886102 0)
(1.22597 0.833487 0)
(1.24422 0.822209 0)
(1.27618 0.809045 0)
(3 6.44418e-17 0)
(3 5.62444e-17 0)
(3 1.26897e-16 0)
(3 1.88192e-15 0)
(3 2.23213e-14 0)
(3 1.34569e-13 0)
(3 1.52823e-12 0)
(3 1.20179e-11 0)
(3 1.01259e-10 0)
(3 8.74497e-10 0)
(3 6.1594e-09 0)
(3 6.1615e-08 0)
(3 4.94653e-07 0)
(2.99999 4.31001e-06 0)
(3.00009 3.4992e-05 0)
(2.99968 0.000302113 0)
(3.00354 0.00239454 0)
(2.99691 0.020524 0)
(3.16883 0.162603 0)
(3.08162 0.714011 0)
(2.16906 1.04201 0)
(1.31564 0.914675 0)
(1.26504 0.874638 0)
(1.28343 0.837102 0)
(1.30607 0.819254 0)
(3 -1.06488e-16 0)
(3 1.21281e-16 0)
(3 5.38915e-16 0)
(3 -1.17966e-16 0)
(3 2.06437e-14 0)
(3 3.60037e-13 0)
(3 -3.82429e-13 0)
(3 1.66307e-11 0)
(3 -3.41252e-11 0)
(3 6.07298e-10 0)
(3 6.80233e-09 0)
(3 -3.6697e-09 0)
(3 2.24287e-07 0)
(3 1.62971e-07 0)
(3.00001 9.06845e-06 0)
(3.00004 6.6316e-05 0)
(3.00061 8.36197e-05 0)
(3.00244 0.00615875 0)
(3.05026 0.024641 0)
(3.20296 0.393742 0)
(2.77205 1.04348 0)
(1.61442 0.977602 0)
(1.32929 0.92164 0)
(1.3197 0.851791 0)
(1.33423 0.839652 0)
(3 -1.0206e-16 0)
(3 -1.18388e-16 0)
(3 -3.51009e-16 0)
(3 7.45186e-16 0)
(3 5.46125e-15 0)
(3 4.29203e-14 0)
(3 3.16631e-13 0)
(3 2.54137e-12 0)
(3 2.22875e-11 0)
(3 1.57522e-10 0)
(3 5.27016e-10 0)
(3 5.72462e-09 0)
(3 7.7038e-08 0)
(3 6.81241e-07 0)
(2.99999 5.8882e-06 0)
(3.00012 4.54033e-05 0)
(2.99955 0.000386264 0)
(3.00424 0.00290307 0)
(2.99594 0.0248267 0)
(3.20461 0.201495 0)
(3.1034 0.781336 0)
(2.21746 1.05917 0)
(1.42304 0.944576 0)
(1.35959 0.901086 0)
(1.37669 0.844831 0)
(3 3.16106e-17 0)
(3 3.72814e-16 0)
(3 3.71189e-16 0)
(3 1.10471e-15 0)
(3 -2.11178e-15 0)
(3 4.16147e-14 0)
(3 -1.3812e-14 0)
(3 1.51362e-12 0)
(3 7.7758e-12 0)
(3 8.30692e-11 0)
(3 7.77658e-10 0)
(3 1.57164e-09 0)
(3 3.4863e-08 0)
(3 4.01041e-07 0)
(3 3.33543e-07 0)
(3.00001 1.32092e-05 0)
(3.00006 5.64305e-05 0)
(3.00066 0.000478009 0)
(3.00339 0.00604624 0)
(3.05196 0.055344 0)
(3.3515 0.460025 0)
(2.89036 1.01258 0)
(1.75052 0.97993 0)
(1.46625 0.944781 0)
(1.40998 0.891892 0)
(3 2.18345e-17 0)
(3 1.79376e-16 0)
(3 3.74651e-16 0)
(3 1.03254e-15 0)
(3 -9.09687e-16 0)
(3 7.51691e-15 0)
(3 5.64044e-14 0)
(3 -1.83191e-13 0)
(3 2.83098e-12 0)
(3 3.7558e-11 0)
(3 1.76986e-10 0)
(3 5.559e-10 0)
(3 1.32437e-08 0)
(3 -4.55259e-07 0)
(3 1.08629e-06 0)
(3 5.82969e-06 0)
(3.00002 2.14498e-05 0)
(3.00011 0.000420954 0)
(3.00132 0.00108425 0)
(3.00957 0.0353622 0)
(3.14044 -0.228607 0)
(3.19906 0.842395 0)
(2.36545 1.08897 0)
(1.53009 0.954589 0)
(1.46673 0.934611 0)
(3 -7.96846e-17 0)
(3 -4.45853e-16 0)
(3 -3.74934e-16 0)
(3 -2.98567e-16 0)
(3 -8.24054e-16 0)
(3 2.52496e-15 0)
(3 3.39779e-15 0)
(3 9.53026e-14 0)
(3 8.48458e-13 0)
(3 -2.42854e-13 0)
(3 6.11358e-11 0)
(3 -2.59921e-10 0)
(3 2.79032e-09 0)
(3 3.25056e-08 0)
(3 2.3547e-07 0)
(3.00001 1.89453e-06 0)
(2.99997 1.56115e-05 0)
(3.00034 0.000114217 0)
(2.99866 0.0010176 0)
(3.01784 0.00806478 0)
(2.91628 0.0622234 0)
(3.39541 0.456909 0)
(3.01077 1.10974 0)
(1.90807 1.04382 0)
(1.53051 1.01546 0)
(3 8.93851e-17 0)
(3 9.14966e-17 0)
(3 -3.03744e-16 0)
(3 -4.86856e-16 0)
(3 -5.57414e-16 0)
(3 -3.00395e-16 0)
(3 6.99209e-16 0)
(3 1.58358e-14 0)
(3 6.59921e-14 0)
(3 2.07488e-12 0)
(3 1.09075e-11 0)
(3 -1.01379e-11 0)
(3 2.79357e-10 0)
(3 6.83952e-09 0)
(3 4.8959e-08 0)
(3 8.64311e-07 0)
(2.99999 2.822e-06 0)
(3.00008 5.64638e-05 0)
(2.99982 0.000244527 0)
(3.00354 0.00358977 0)
(3.00147 0.00828632 0)
(3.14857 -0.032262 0)
(3.32751 0.714332 0)
(2.60353 1.06179 0)
(1.67252 0.972308 0)
(3 -1.56222e-33 0)
(3 -9.96368e-26 0)
(3 1.02638e-16 0)
(3 3.07913e-16 0)
(3 3.75524e-16 0)
(3 1.00442e-15 0)
(3 -8.9155e-16 0)
(3 1.39204e-14 0)
(3 5.30471e-14 0)
(3 8.40982e-13 0)
(3 1.36683e-12 0)
(3 6.05975e-11 0)
(3 1.21218e-10 0)
(3 4.59349e-09 0)
(3 1.80024e-08 0)
(3 2.63016e-07 0)
(3 1.20683e-06 0)
(2.99999 1.71465e-05 0)
(3.00017 8.77469e-05 0)
(2.99965 0.000982865 0)
(3.01006 0.0062976 0)
(2.97072 0.0547262 0)
(3.34085 0.409094 0)
(3.11528 1.0325 0)
(2.1108 1.06211 0)
(3 -1.02638e-16 0)
(3 -2.66892e-16 0)
(3 -1.98154e-16 0)
(3 -3.13255e-16 0)
(3 -4.12653e-16 0)
(3 -5.73483e-16 0)
(3 -4.10943e-16 0)
(3 -5.55641e-16 0)
(3 -4.96318e-15 0)
(3 6.78737e-14 0)
(3 1.43402e-12 0)
(3 1.55859e-11 0)
(3 1.841e-10 0)
(3 2.85663e-10 0)
(3 1.08377e-08 0)
(3 3.52493e-08 0)
(3 6.28402e-07 0)
(3 3.03576e-06 0)
(3.00004 3.69763e-05 0)
(2.99997 0.000184839 0)
(3.0024 0.0020912 0)
(3.00199 0.0100918 0)
(3.13104 0.0353033 0)
(3.36555 0.616351 0)
(2.79371 1.04317 0)
(3 -2.05276e-16 0)
(3 1.49252e-23 0)
(3 -3.07913e-16 0)
(3 -4.34497e-16 0)
(3 -6.15842e-16 0)
(3 -8.20945e-16 0)
(3 -8.02044e-16 0)
(3 1.79001e-15 0)
(3 -3.43796e-15 0)
(3 1.0008e-13 0)
(3 8.93135e-13 0)
(3 1.36307e-12 0)
(3 3.21417e-11 0)
(3 2.29969e-10 0)
(3 3.12288e-09 0)
(3 1.42214e-08 0)
(3 2.05695e-07 0)
(3 1.1474e-06 0)
(2.99999 1.18517e-05 0)
(3.00015 7.45386e-05 0)
(2.99962 0.000744574 0)
(3.00741 0.00508158 0)
(2.98546 0.0449735 0)
(3.34482 0.26969 0)
(3.23203 0.9005 0)
(3 -6.04381e-17 0)
(3 1.53957e-16 0)
(3 2.56595e-16 0)
(3 2.56595e-16 0)
(3 2.395e-16 0)
(3 4.10775e-16 0)
(3 5.93881e-16 0)
(3 1.33831e-15 0)
(3 5.25147e-16 0)
(3 9.18e-15 0)
(3 1.57672e-13 0)
(3 5.41166e-13 0)
(3 8.03346e-12 0)
(3 8.37168e-11 0)
(3 5.56714e-11 0)
(3 9.56496e-09 0)
(3 1.1579e-08 0)
(3 4.03812e-07 0)
(3 1.47468e-06 0)
(3.00002 2.25085e-05 0)
(3.0001 6.61136e-05 0)
(3.00082 0.00122536 0)
(3.00483 0.00561093 0)
(3.07337 0.0713017 0)
(3.39145 0.490094 0)
(3 5.13189e-17 0)
(3 3.84822e-17 0)
(3 2.05276e-16 0)
(3 2.14747e-16 0)
(3 5.69248e-16 0)
(3 7.59781e-16 0)
(3 9.46303e-16 0)
(3 1.11905e-15 0)
(3 1.95262e-15 0)
(3 3.18567e-16 0)
(3 8.30896e-14 0)
(3 4.82232e-13 0)
(3 4.60574e-12 0)
(3 4.09464e-11 0)
(3 3.1563e-10 0)
(3 2.64586e-09 0)
(3 2.18137e-08 0)
(3 1.66371e-07 0)
(3 1.27411e-06 0)
(3 -2.1314e-05 0)
(3.00001 5.30029e-05 0)
(3.0002 0.000650132 0)
(3.00132 -0.000967983 0)
(3.00474 0.0255376 0)
(3.17709 0.0700614 0)
(3 1.53957e-16 0)
(3 1.53957e-16 0)
(3 2.93564e-17 0)
(3 1.75467e-16 0)
(3 3.23268e-16 0)
(3 2.3538e-16 0)
(3 4.96371e-16 0)
(3 1.58678e-15 0)
(3 -1.18044e-15 0)
(3 6.13301e-15 0)
(3 3.21863e-14 0)
(3 2.33312e-13 0)
(3 2.66172e-13 0)
(3 1.30648e-11 0)
(3 -7.09226e-11 0)
(3 4.49296e-10 0)
(3 4.05969e-09 0)
(3 1.07411e-08 0)
(3 2.42085e-07 0)
(2.99999 2.25109e-06 0)
(3.00005 1.44883e-05 0)
(2.99998 9.98216e-05 0)
(2.99845 0.000852214 0)
(3.0116 0.00608876 0)
(2.98311 0.0531074 0)
(3 -1.02638e-16 0)
(3 2.60383e-17 0)
(3 -1.60967e-16 0)
(3 4.27745e-16 0)
(3 1.8625e-16 0)
(3 1.73378e-16 0)
(3 3.55324e-16 0)
(3 7.02613e-16 0)
(3 9.03397e-16 0)
(3 2.6385e-15 0)
(3 1.27213e-14 0)
(3 -6.26236e-14 0)
(3 8.21784e-13 0)
(3 -2.51201e-12 0)
(3 4.19123e-11 0)
(3 2.63748e-10 0)
(3 2.04873e-09 0)
(3 1.58855e-08 0)
(3 2.77519e-07 0)
(3 -7.71203e-07 0)
(3 5.94805e-06 0)
(3.00002 5.06089e-05 0)
(3.00006 7.70333e-05 0)
(3.00113 -0.000125174 0)
(3.00691 0.00504592 0)
(3 5.13189e-17 0)
(3 4.99741e-17 0)
(3 5.29414e-17 0)
(3 5.98112e-18 0)
(3 3.19896e-16 0)
(3 3.37491e-16 0)
(3 1.78952e-16 0)
(3 2.04203e-16 0)
(3 -2.75841e-16 0)
(3 1.20293e-15 0)
(3 -7.2395e-15 0)
(3 1.68338e-14 0)
(3 1.28455e-13 0)
(3 1.06059e-12 0)
(3 1.71391e-12 0)
(3 5.17287e-11 0)
(3 4.93426e-10 0)
(3 -2.39465e-09 0)
(3 2.87508e-08 0)
(3 1.96372e-07 0)
(3 1.58908e-06 0)
(3.00001 -3.31136e-06 0)
(3.00004 7.78876e-05 0)
(2.99948 0.000559017 0)
(3.00185 -0.0124495 0)
(3 1.14763e-16 0)
(3 3.04362e-16 0)
(3 4.53273e-16 0)
(3 1.24284e-16 0)
(3 -1.37008e-16 0)
(3 -8.88574e-17 0)
(3 -6.30565e-16 0)
(3 -6.1526e-16 0)
(3 -1.22178e-15 0)
(3 -1.39613e-15 0)
(3 -4.40022e-16 0)
(3 5.44795e-15 0)
(3 5.7901e-14 0)
(3 1.32952e-13 0)
(3 3.8036e-12 0)
(3 -2.67056e-11 0)
(3 1.50338e-10 0)
(3 5.37865e-10 0)
(3 7.43851e-09 0)
(3 4.17241e-08 0)
(3 -5.40659e-08 0)
(3 2.85489e-06 0)
(3.00001 1.16043e-05 0)
(3.00009 4.65421e-05 0)
(2.99899 0.000822812 0)
(3 -9.80421e-17 0)
(3 -2.09871e-16 0)
(3 -3.07913e-16 0)
(3 -4.10551e-16 0)
(3 -5.64508e-16 0)
(3 -5.30143e-16 0)
(3 -6.01952e-16 0)
(3 -4.61656e-16 0)
(3 -3.07061e-16 0)
(3 -3.95615e-16 0)
(3 5.90157e-16 0)
(3 2.31295e-15 0)
(3 8.13682e-15 0)
(3 6.56515e-14 0)
(3 6.3533e-13 0)
(3 6.0025e-12 0)
(3 4.36081e-11 0)
(3 1.02985e-10 0)
(3 1.79427e-09 0)
(3 1.15514e-08 0)
(3 1.95083e-08 0)
(3 5.20913e-07 0)
(3 4.21919e-06 0)
(2.99999 2.12032e-05 0)
(3.00014 -5.2728e-05 0)
(3 -3.30371e-18 0)
(3 -1.01011e-16 0)
(3 5.13206e-17 0)
(3 2.56592e-16 0)
(3 3.50788e-16 0)
(3 4.09703e-16 0)
(3 4.10531e-16 0)
(3 3.07905e-16 0)
(3 3.15606e-16 0)
(3 2.99207e-16 0)
(3 -2.5212e-17 0)
(3 6.95524e-16 0)
(3 4.91395e-15 0)
(3 3.02835e-14 0)
(3 3.32419e-13 0)
(3 6.35608e-14 0)
(3 9.94854e-12 0)
(3 6.14386e-11 0)
(3 1.82203e-10 0)
(3 2.48145e-09 0)
(3 1.17099e-08 0)
(3 2.14887e-08 0)
(3 3.60026e-07 0)
(3 5.70099e-07 0)
(3.00005 2.44579e-05 0)
(3 1.53957e-16 0)
(3 2.90643e-16 0)
(3 1.82139e-16 0)
(3 1.02638e-16 0)
(3 1.53957e-16 0)
(3 9.61136e-17 0)
(3 2.15205e-16 0)
(3 2.99518e-16 0)
(3 4.23039e-16 0)
(3 4.79704e-16 0)
(3 6.65804e-17 0)
(3 3.55009e-16 0)
(3 6.40823e-16 0)
(3 6.58089e-15 0)
(3 1.79839e-14 0)
(3 3.27063e-13 0)
(3 2.81874e-12 0)
(3 6.8808e-12 0)
(3 1.82263e-11 0)
(3 7.3677e-10 0)
(3 -9.81855e-10 0)
(3 5.22948e-08 0)
(3 5.10432e-08 0)
(3 1.32016e-06 0)
(3 7.81758e-06 0)
(3 -1.02638e-16 0)
(3 -3.59232e-16 0)
(3 -3.77615e-16 0)
(3 -7.69784e-16 0)
(3 -7.69784e-16 0)
(3 -6.20682e-16 0)
(3 -7.33804e-16 0)
(3 -8.44724e-17 0)
(3 -1.12055e-15 0)
(3 -2.44544e-16 0)
(3 -1.12107e-15 0)
(3 2.79563e-16 0)
(3 -2.24002e-15 0)
(3 1.00048e-15 0)
(3 1.60342e-14 0)
(3 4.61087e-14 0)
(3 7.92524e-13 0)
(3 3.3625e-12 0)
(3 2.71193e-11 0)
(3 6.28004e-11 0)
(3 8.77246e-10 0)
(3 4.53495e-09 0)
(3 1.4173e-08 0)
(3 -5.72863e-08 0)
(3.00001 -7.60436e-07 0)
(3 -1.02638e-16 0)
(3 -1.53957e-16 0)
(3 -1.53957e-16 0)
(3 -5.13189e-17 0)
(3 -5.13189e-17 0)
(3 -1.02638e-16 0)
(3 -5.13189e-17 0)
(3 -5.64508e-16 0)
(3 -7.18465e-16 0)
(3 -8.72421e-16 0)
(3 -9.33606e-16 0)
(3 -1.0749e-15 0)
(3 -1.22998e-15 0)
(3 -5.82359e-16 0)
(3 -9.87063e-15 0)
(3 3.61152e-14 0)
(3 8.68938e-14 0)
(3 1.63564e-12 0)
(3 -2.54041e-12 0)
(3 9.26866e-11 0)
(3 -5.32534e-11 0)
(3 2.47634e-09 0)
(3 -5.3839e-09 0)
(3 6.60694e-08 0)
(3 4.00603e-07 0)
(3 5.13189e-17 0)
(3 -5.13189e-17 0)
(3 5.13189e-17 0)
(3 9.19145e-18 0)
(3 9.34464e-17 0)
(3 -1.02638e-16 0)
(3 -1.02638e-16 0)
(3 -1.02638e-16 0)
(3 -5.19071e-17 0)
(3 -2.59519e-16 0)
(3 -4.18314e-16 0)
(3 -5.29842e-16 0)
(3 -6.89283e-16 0)
(3 -5.77206e-16 0)
(3 3.86875e-16 0)
(3 1.81762e-15 0)
(3 -1.16618e-15 0)
(3 3.32605e-13 0)
(3 2.5856e-12 0)
(3 -3.8708e-11 0)
(3 6.7211e-11 0)
(3 3.12188e-10 0)
(3 7.18051e-10 0)
(3 -3.6208e-09 0)
(3.00001 -9.40913e-08 0)
(3 5.13189e-17 0)
(3 1.55253e-16 0)
(3 5.00227e-17 0)
(3 6.51061e-17 0)
(3 3.75317e-17 0)
(3 -2.56595e-16 0)
(3 -5.13189e-16 0)
(3 -6.67146e-16 0)
(3 -8.72421e-16 0)
(3 -8.72435e-16 0)
(3 -8.7237e-16 0)
(3 -8.21045e-16 0)
(3 -7.83051e-16 0)
(3 -1.12769e-15 0)
(3 1.98537e-15 0)
(3 1.29262e-14 0)
(3 -3.52009e-14 0)
(3 1.02662e-13 0)
(3 1.14686e-12 0)
(3 -9.4591e-12 0)
(3 7.63908e-11 0)
(3 -7.93689e-10 0)
(3 9.65213e-09 0)
(3 -5.44239e-08 0)
(3 5.33679e-07 0)
(3 5.13189e-17 0)
(3 2.05276e-16 0)
(3 3.07913e-16 0)
(3 3.07913e-16 0)
(3 4.10551e-16 0)
(3 4.6187e-16 0)
(3 4.6187e-16 0)
(3 4.61714e-16 0)
(3 4.72617e-16 0)
(3 2.16852e-16 0)
(3 1.79779e-16 0)
(3 1.85227e-17 0)
(3 -2.46261e-17 0)
(3 -4.05528e-16 0)
(3 -4.87817e-16 0)
(3 -4.72059e-15 0)
(3 3.01426e-15 0)
(3 1.72414e-13 0)
(3 -1.302e-12 0)
(3 -4.45385e-12 0)
(3 -1.13978e-11 0)
(3 -1.98098e-10 0)
(3 -9.21846e-10 0)
(3 -1.20698e-08 0)
(3 9.85649e-08 0)
(3 -5.13189e-17 0)
(3 -1.02638e-16 0)
(3 -3.07913e-16 0)
(3 -3.74676e-16 0)
(3 -4.49955e-16 0)
(3 -5.28839e-16 0)
(3 -2.92263e-16 0)
(3 -1.09732e-16 0)
(3 -5.13189e-17 0)
(3 -1.53957e-16 0)
(3 -2.05274e-16 0)
(3 -2.26704e-16 0)
(3 -2.33689e-16 0)
(3 2.18069e-16 0)
(3 7.43532e-16 0)
(3 -1.39142e-15 0)
(3 -9.92561e-15 0)
(3 1.6057e-13 0)
(3 -1.70811e-12 0)
(3 6.79148e-11 0)
(3 1.00545e-09 0)
(3 -3.29406e-09 0)
(3 1.7621e-08 0)
(3 -7.57078e-08 0)
(3 1.91783e-07 0)
(3 -1.02638e-16 0)
(3 -2.56595e-16 0)
(3 -5.64508e-16 0)
(3 -7.18465e-16 0)
(3 -8.72421e-16 0)
(3 -9.75059e-16 0)
(3 -8.92435e-16 0)
(3 -1.1735e-15 0)
(3 -1.08454e-15 0)
(3 -9.2374e-16 0)
(3 -6.67146e-16 0)
(3 -3.53581e-16 0)
(3 9.82256e-17 0)
(3 8.00413e-16 0)
(3 1.88901e-15 0)
(3 2.2495e-15 0)
(3 3.80387e-14 0)
(3 -8.03603e-13 0)
(3 -1.65701e-12 0)
(3 2.19475e-11 0)
(3 -1.70667e-10 0)
(3 -3.88268e-10 0)
(3 -1.37208e-10 0)
(3 -5.28713e-09 0)
(3 3.28764e-09 0)
(1.24802 1.11394 0)
(0.578542 0.666934 0)
(-0.575466 -0.0581422 0)
(-0.277969 -0.298556 0)
(-0.37245 -0.196239 0)
(-0.192975 0.0124849 0)
(-0.69067 0.221803 0)
(-0.97884 0.190478 0)
(-1.13647 0.147708 0)
(-1.1837 0.0988691 0)
(-1.17718 0.0363096 0)
(-1.17326 0.0307464 0)
(-1.17634 0.0217502 0)
(-1.25125 0.00594444 0)
(-1.3167 -0.016702 0)
(-1.36304 -0.0181329 0)
(-1.38738 -0.0157368 0)
(-1.3955 -0.014216 0)
(-1.39553 -0.0106388 0)
(-1.39435 -0.00880526 0)
(-1.39464 -0.0072161 0)
(-1.40113 -0.00497002 0)
(-1.40659 -0.00292343 0)
(-1.41536 0.000904757 0)
(-1.42139 0.0043262 0)
(-1.42471 0.00578056 0)
(-1.4269 0.00511558 0)
(-1.42408 0.00378277 0)
(-1.40762 0.00460516 0)
(-1.39249 0.00616988 0)
(-1.35206 0.00678173 0)
(-1.31073 0.0040367 0)
(-1.25649 -0.00102935 0)
(-1.20017 -0.0137902 0)
(-1.1353 -0.0222709 0)
(-1.06246 -0.0328174 0)
(-0.987123 -0.0379666 0)
(-0.913876 -0.0474193 0)
(-0.844357 -0.0369082 0)
(-0.755003 -0.0298536 0)
(-0.666454 -0.0232098 0)
(-0.579943 -0.00583931 0)
(-0.49088 0.000112954 0)
(-0.41107 0.00919573 0)
(-0.347818 0.00438753 0)
(-0.251182 -0.0171857 0)
(-0.160879 -0.021755 0)
(-0.0783002 -0.02929 0)
(0.0129455 -0.0309136 0)
(0.0914291 -0.0270621 0)
(0.164448 -0.0252716 0)
(0.232174 -0.0250325 0)
(0.296934 -0.0264208 0)
(0.358371 -0.026663 0)
(0.416415 -0.0262234 0)
(0.470308 -0.0250796 0)
(0.521277 -0.0240025 0)
(0.569099 -0.0223543 0)
(0.613808 -0.0208365 0)
(0.655784 -0.0194912 0)
(0.694881 -0.0180125 0)
(0.731498 -0.0165598 0)
(0.76623 -0.0153652 0)
(0.799523 -0.0142032 0)
(0.831008 -0.0132221 0)
(0.86115 -0.0124071 0)
(0.889439 -0.0117043 0)
(0.916752 -0.0108865 0)
(0.942432 -0.0100959 0)
(0.967197 -0.00935032 0)
(0.990523 -0.00873357 0)
(1.01312 -0.0081467 0)
(1.03459 -0.00769142 0)
(1.05557 -0.00726147 0)
(1.0757 -0.00693193 0)
(1.09548 -0.00656949 0)
(1.11448 -0.00627501 0)
(1.13314 -0.00591399 0)
(1.15098 -0.00558883 0)
(1.16852 -0.00524285 0)
(1.18542 -0.00496258 0)
(1.20209 -0.00464089 0)
(1.21843 -0.00439858 0)
(1.23453 -0.00408818 0)
(1.25046 -0.00391035 0)
(1.2662 -0.00361099 0)
(1.28185 -0.00343811 0)
(1.29735 -0.0031479 0)
(1.31278 -0.00298912 0)
(1.3281 -0.00276139 0)
(1.34333 -0.00268453 0)
(1.35846 -0.00248394 0)
(1.3735 -0.00248 0)
(1.38845 -0.00224919 0)
(1.40349 -0.00233279 0)
(1.41849 -0.00204054 0)
(1.43406 -0.00233963 0)
(1.44964 -0.00180916 0)
(1.46643 -0.00198305 0)
(1.48574 -3.71407e-05 0)
(1.27316 1.0115 0)
(1.2264 0.784605 0)
(0.770565 0.596213 0)
(0.600542 0.256826 0)
(-0.128834 0.103119 0)
(-0.251292 0.223323 0)
(-0.636713 0.262357 0)
(-0.803401 0.0994672 0)
(-0.889865 0.032523 0)
(-0.831122 -0.0713559 0)
(-0.777666 -0.0484546 0)
(-0.757872 -0.0382053 0)
(-0.780054 -0.0161568 0)
(-0.865604 -0.00191964 0)
(-0.930197 0.0396724 0)
(-0.973999 0.0590292 0)
(-0.991043 0.0445913 0)
(-0.995501 0.0310711 0)
(-0.990808 0.0134107 0)
(-0.989755 0.00671319 0)
(-0.989064 0.00609077 0)
(-0.995286 0.00699852 0)
(-0.999477 0.00172597 0)
(-1.01386 0.00423241 0)
(-1.02471 -0.00267198 0)
(-1.0329 -0.000176878 0)
(-1.03594 -0.00168158 0)
(-1.02944 -0.00225336 0)
(-1.00892 -0.00684432 0)
(-0.990503 -0.00881802 0)
(-0.950766 -0.0159331 0)
(-0.903796 -0.0216414 0)
(-0.850809 -0.027104 0)
(-0.781219 -0.024763 0)
(-0.707144 -0.0233854 0)
(-0.622999 -0.0237066 0)
(-0.538015 -0.0251701 0)
(-0.453659 -0.0317974 0)
(-0.389236 -0.03234 0)
(-0.263787 -0.0671348 0)
(-0.148758 -0.0874206 0)
(-0.0306604 -0.105935 0)
(0.119151 -0.121615 0)
(0.244005 -0.121141 0)
(0.380225 -0.126944 0)
(0.49267 -0.134786 0)
(0.573589 -0.121768 0)
(0.646592 -0.115344 0)
(0.709839 -0.111333 0)
(0.763574 -0.100901 0)
(0.814086 -0.0924501 0)
(0.861813 -0.0864034 0)
(0.903081 -0.0791268 0)
(0.941473 -0.0726779 0)
(0.976641 -0.066976 0)
(1.00811 -0.0603997 0)
(1.03923 -0.0561869 0)
(1.06753 -0.0516152 0)
(1.09498 -0.0472564 0)
(1.12113 -0.0432379 0)
(1.1458 -0.0394565 0)
(1.16959 -0.036096 0)
(1.19231 -0.0335371 0)
(1.21395 -0.0312007 0)
(1.23466 -0.0288822 0)
(1.25487 -0.0263447 0)
(1.27412 -0.0240766 0)
(1.29273 -0.0220816 0)
(1.31031 -0.0203425 0)
(1.32721 -0.0186745 0)
(1.34321 -0.017282 0)
(1.35878 -0.0159805 0)
(1.37367 -0.014946 0)
(1.38827 -0.013935 0)
(1.40245 -0.0130948 0)
(1.4165 -0.0122243 0)
(1.43017 -0.0114718 0)
(1.44374 -0.0106607 0)
(1.45684 -0.0100135 0)
(1.4698 -0.00935228 0)
(1.48228 -0.0088234 0)
(1.49465 -0.00822845 0)
(1.50683 -0.00775976 0)
(1.51891 -0.00716615 0)
(1.53094 -0.00673163 0)