/*--------------------------------*- C++ -*----------------------------------*\
| =========                 |                                                 |
| \\      /  F ield         | OpenFOAM: The Open Source CFD Toolbox           |
|  \\    /   O peration     | Version:  v2106                                 |
|   \\  /    A nd           | Website:  www.openfoam.com                      |
|    \\/     M anipulation  |                                                 |
\*---------------------------------------------------------------------------*/
FoamFile
{
    version     2.0;
    format      ascii;
    arch        "LSB;label=32;scalar=64";
    class       volScalarField;
    location    "2";
    object      p;
}
// * * * * * * * * * * * * * * * * * * * * * * * * * * * * * * * * * * * * * //

dimensions      [1 -1 -2 0 0 0 0];

internalField   nonuniform List<scalar> 
5250
(
1
1
1
1
1
1
1
1
1.00002
1.00013
1.00176
1.01283
1.1364
1.86289
4.73613
11.7091
10.9765
11.1766
11.4799
11.6479
11.7963
11.932
12.0359
12.1133
12.1547
1
1
1
1
1
1
1
1
1.00002
1.00012
1.00172
1.01252
1.13338
1.84781
4.684
11.6133
10.9814
11.1633
11.4628
11.6382
11.7842
11.9194
12.0247
12.1001
12.1431
1
1
1
1
1
1
1
1
1.00002
1.00012
1.00164
1.01188
1.12707
1.81579
4.5724
11.3715
11.0082
11.1296
11.413
11.5913
11.7272
11.8629
11.9568
12.0373
12.0729
1
1
1
1
1
1
1
1
1.00002
1.00011
1.00153
1.01098
1.11803
1.76944
4.41055
11.0275
11.0497
11.0639
11.328
11.5136
11.654
11.7748
11.8722
11.9412
11.9767
1
1
1
1
1
1
1
1
1.00002
1.0001
1.00137
1.00984
1.1059
1.70605
4.17983
10.5969
11.1308
10.9345
11.1927
11.4134
11.5253
11.6564
11.7381
11.8174
11.8443
1
1
1
1
1
1
1
1
1.00002
1.00008
1.00121
1.00847
1.09274
1.62863
3.88549
10.0312
11.2674
10.7942
11.0525
11.2606
11.3852
11.5086
11.5812
11.632
11.6478
1
1
1
1
1
1
1
1
1.00001
1.00011
1.00096
1.0082
1.07464
1.53499
3.53493
9.2968
11.4187
10.5974
10.9021
11.0919
11.1888
11.2891
11.3342
11.4044
11.4013
1
1
1
1
1
1
1
1
1.00001
1.00008
1.00069
1.00647
1.05374
1.43112
3.12085
8.44958
11.6034
10.4063
10.6931
10.9306
10.9914
11.0929
11.0914
11.0869
11.0031
1
1
1
1
1
1
1
1
1.00001
1.00006
1.00048
1.00454
1.03726
1.32483
2.68171
7.43214
11.7943
10.2771
10.5823
10.6701
10.7711
10.7721
10.7261
10.601
10.4327
1
1
1
1
1
1
1
1
1
1.00004
1.00031
1.00291
1.0248
1.24147
2.32954
6.43562
11.7101
10.2051
10.4569
10.5013
10.4575
10.4832
10.2907
10.2707
9.3723
1
1
1
1
1
1
1
1
1
1.00003
1.00024
1.00232
1.01758
1.18434
2.07284
5.55658
11.0213
10.1345
10.3132
10.3279
10.1513
10.1336
9.67372
9.27616
6.93295
1
1
1
1
1
1
1
1
1
1.00003
1.00012
1.00173
1.01227
1.13628
1.8099
4.66191
9.9842
10.1235
10.1149
10.1293
9.80666
9.70059
9.08542
8.47693
6.58248
1
1
1
1
1
1
1
1
1
1.00002
1.00008
1.00118
1.00814
1.08868
1.6006
3.81276
8.80513
10.2764
9.86318
9.79532
9.5419
9.29913
8.75978
8.07346
6.70861
1
1
1
1
1
1
1
1
1
1.00001
1.00007
1.00067
1.00569
1.04653
1.41226
3.04391
7.44864
10.2449
9.63513
9.44987
9.25958
8.98161
8.47518
7.84574
6.73148
1
1
1
1
1
1
1
1
1
1
1.00004
1.0003
1.00327
1.02592
1.24871
2.35867
6.12245
10.1801
9.41381
9.25956
9.05457
8.71732
8.24783
7.60958
6.67223
1
1
1
1
1
1
1
1
1
1
1.00003
1.00018
1.00221
1.0162
1.16868
1.97081
5.00528
9.38998
9.35926
9.09881
8.86493
8.51559
8.05907
7.46154
6.61784
1
1
1
1
1
1
1
1
1
1
1.00002
1.00009
1.00131
1.00892
1.09656
1.63664
3.92841
8.09925
9.29368
8.91434
8.61018
8.26662
7.84798
7.31096
6.59091
1
1
1
1
1
1
1
1
1
1
1.00001
1.00007
1.00066
1.00554
1.04426
1.39177
2.95644
6.64515
9.12815
8.69981
8.3912
8.09071
7.70822
7.21531
6.57083
1
1
1
1
1
1
1
1
1
1
1
1.00004
1.00023
1.00295
1.02078
1.21485
2.17592
5.19664
8.62063
8.61959
8.32653
8.00506
7.6163
7.14213
6.55109
1
1
1
1
1
1
1
1
1
1
1
1.00002
1.00018
1.00158
1.01291
1.1125
1.73124
4.01638
7.58597
8.61885
8.27876
7.89443
7.49231
7.04469
6.50861
1
1
1
1
1
1
1
1
1
1
1
1
1.0001
1.00039
1.00642
1.04032
1.41767
2.93232
6.17062
8.41258
8.09365
7.75648
7.38404
6.97097
6.48307
1
1
1
1
1
1
1
1
1
1
1
1
1.00004
1.00033
1.0028
1.02263
1.18551
2.07691
4.68359
7.72048
8.00159
7.69956
7.33045
6.9307
6.47636
1
1
1
1
1
1
1
1
1
1
1
1
0.999999
1.00019
1.00047
1.01145
1.05806
1.65261
3.48414
6.53828
7.94542
7.64359
7.30653
6.92371
6.48827
1
1
1
1
1
1
1
1
1
1
1
1
1.00001
1.00007
1.0005
1.00423
1.03281
1.26213
2.38638
5.08778
7.49572
7.50892
7.25868
6.90592
6.49329
1
1
1
1
1
1
1
1
1
1
1
1
1
1.00005
1.00034
1.00044
1.01495
1.06284
1.7821
3.72813
6.48476
7.5321
7.25072
6.92301
6.52602
1
1
1
1
1
1
1
1
1
1
1
1
1
1.00001
1.00009
1.00064
1.0055
1.04048
1.32574
2.60316
5.14798
7.2208
7.15429
6.89727
6.53875
1
1
1
1
1
1
1
1
1
1
1
1
1
1
1.00007
1.00038
1.00045
1.01575
1.06654
1.83235
3.79926
6.3128
7.17613
6.90438
6.56952
1
1
1
1
1
1
1
1
1
1
1
1
1
1
1.00001
1.0001
1.00071
1.00603
1.04279
1.34966
2.63768
5.00675
6.87394
6.83088
6.57345
1
1
1
1
1
1
1
1
1
1
1
1
1
1
1
1.00007
1.00034
1.00015
1.01601
1.06801
1.81284
3.67739
6.00169
6.86251
6.59033
1
1
1
1
1
1
1
1
1
1
1
1
1
1
1
1.00001
1.0001
1.00068
1.00583
1.03943
1.33012
2.51602
4.69557
6.48498
6.54842
1
1
1
1
1
1
1
1
1
1
1
1
1
1
1
1
1.00005
1.00025
0.999766
1.01475
1.06661
1.7287
3.36584
5.5029
6.49856
1
1
1
1
1
1
1
1
1
1
1
1
1
1
1
1
1.00001
1.00009
1.00054
1.00496
1.03272
1.2848
2.30528
4.27391
6.03692
1
1
1
1
1
1
1
1
1
1
1
1
1
1
1
1
1
1.00001
1.00004
0.998999
1.01021
1.05542
1.61938
2.9915
5.03534
1
1
1
1
1
1
1
1
1
1
1
1
1
1
1
1
1
1.00001
1.00006
1.00045
1.00394
1.02628
1.21975
2.13541
3.87565
1
1
1
1
1
1
1
1
1
1
1
1
1
1
1
1
1
1
1.00001
1.00009
1.0004
1.00651
1.04914
1.39886
2.55551
1
1
1
1
1
1
1
1
1
1
1
1
1
1
1
1
1
1
1
1.00006
1.00032
1.00373
1.02264
1.01767
1.6445
1
1
1
1
1
1
1
1
1
1
1
1
1
1
1
1
1
1
1
1.00001
1.00008
1.00069
1.00489
1.03029
1.26046
1
1
1
1
1
1
1
1
1
1
1
1
1
1
1
1
1
1
1
1
1.00002
1.00016
1.00145
1.00747
1.04925
1
1
1
1
1
1
1
1
1
1
1
1
1
1
1
1
1
1
1
1
1.00001
1.00001
1.00095
1.0034
1.01631
1
1
1
1
1
1
1
1
1
1
1
1
1
1
1
1
1
1
1
1
1
1.00001
1.00013
1.00037
1.00521
1
1
1
1
1
1
1
1
1
1
1
1
1
1
1
1
1
1
1
1
1
1
1.00006
1.00023
1.00118
1
1
1
1
1
1
1
1
1
1
1
1
1
1
1
1
1
1
1
1
1
1
1.00001
1.00007
1.00015
1
1
1
1
1
1
1
1
1
1
1
1
1
1
1
1
1
1
1
1
1
1
1
1.00002
1.00016
1
1
1
1
1
1
1
1
1
1
1
1
1
1
1
1
1
1
1
1
1
1
1
1.00002
1.00012
1
1
1
1
1
1
1
1
1
1
1
1
1
1
1
1
1
1
1
1
1
1
1
1.00001
1.00012
1
1
1
1
1
1
1
1
1
1
1
1
1
1
1
1
1
1
1
1
1
1
1
1.00001
1.00011
1
1
1
1
1
1
1
1
1
1
1
1
1
1
1
1
1
1
1
1
1
1
1
1.00001
1.00011
1
1
1
1
1
1
1
1
1
1
1
1
1
1
1
1
1
1
1
1
1
1
1
1.00001
1.00011
1
1
1
1
1
1
1
1
1
1
1
1
1
1
1
1
1
1
1
1
1
1
1
1.00001
1.00011
1
1
1
1
1
1
1
1
1
1
1
1
1
1
1
1
1
1
1
1
1
1
1
1.00001
1.00011
2.94929
3.62587
3.55899
3.10105
3.23992
3.05637
2.83346
2.80319
2.8352
2.85927
2.79592
2.66718
2.58174
2.48663
2.41798
2.37327
2.34195
2.31783
2.28738
2.21468
2.12506
2.0571
2.02255
2.01553
2.03218
2.06964
2.14252
2.24335
2.38944
2.58169
2.83163
3.10849
3.40287
3.73871
4.11797
4.51478
4.86426
5.17852
5.43447
5.63173
5.76791
5.85971
5.92325
5.95271
5.96119
5.95576
5.93518
5.90266
5.86472
5.8237
5.78002
5.73402
5.68705
5.64033
5.59527
5.55246
5.51205
5.47425
5.4391
5.40629
5.37616
5.34844
5.32313
5.29983
5.27906
5.26017
5.24296
5.22738
5.21327
5.20085
5.19023
5.18194
5.17608
5.17258
5.17159
5.17385
5.17926
5.18748
5.19792
5.21031
5.22414
5.23908
5.25499
5.27116
5.28804
5.30512
5.32244
5.33888
5.35584
5.37096
5.38679
5.40054
5.41449
5.42648
5.43831
5.44786
5.45758
5.46425
5.46653
5.48575
4.33035
4.00385
3.25228
3.13952
3.61099
3.14143
2.85863
2.7348
2.74944
2.79199
2.76774
2.66528
2.57762
2.49229
2.419
2.36715
2.3475
2.3373
2.30931
2.23199
2.13958
2.06673
2.02391
2.01025
2.02995
2.06992
2.14324
2.24533
2.38589
2.55841
2.79621
3.05544
3.33375
3.66591
4.05212
4.48866
4.85346
5.12819
5.41004
5.61653
5.74531
5.83871
5.90453
5.93637
5.94567
5.94281
5.92478
5.89352
5.85647
5.81726
5.77465
5.7291
5.68206
5.63576
5.59117
5.54883
5.50882
5.47143
5.43681
5.40458
5.37456
5.34695
5.3217
5.29832
5.27685
5.25843
5.24185
5.22554
5.21083
5.19818
5.18739
5.1788
5.17277
5.16919
5.16805
5.17007
5.17549
5.18369
5.19416
5.20667
5.22055
5.23549
5.25141
5.26766
5.28461
5.30176
5.31903
5.3357
5.35269
5.36799
5.38383
5.39762
5.41161
5.42404
5.43594
5.44624
5.45593
5.46305
5.46544
5.48302
5.04714
4.32131
3.65886
3.3438
3.2326
2.91413
2.74913
2.74692
2.94435
2.98944
2.79873
2.68123
2.55974
2.46315
2.40136
2.35237
2.32361
2.2985
2.26816
2.20344
2.1314
2.07278
2.04411
2.0217
2.04541
2.07891
2.1254
2.20205
2.33648
2.49964
2.76379
3.06552
3.34793
3.64933
3.9938
4.37675
4.75367
5.07921
5.34948
5.56466
5.70106
5.79742
5.86186
5.89942
5.91106
5.91315
5.89853
5.86909
5.8361
5.79982
5.75992
5.71774
5.67284
5.62748
5.58346
5.54295
5.50494
5.46908
5.43506
5.40304
5.37358
5.34668
5.32058
5.29668
5.27515
5.25558
5.2384
5.22331
5.20812
5.19441
5.18305
5.17396
5.16742
5.16355
5.16218
5.16398
5.16933
5.17757
5.18813
5.20063
5.21464
5.22984
5.24587
5.26224
5.27936
5.29658
5.31404
5.33083
5.34783
5.36331
5.37921
5.3933
5.40742
5.42015
5.43246
5.44331
5.45373
5.46157
5.46461
5.48119
5.39537
4.44041
3.77513
3.37782
3.31562
3.14408
2.91042
2.79946
2.82161
2.76795
2.68602
2.6637
2.56494
2.48173
2.41265
2.36551
2.35266
2.36535
2.3396
2.23452
2.14216
2.06509
2.03171
1.99019
2.0131
2.05735
2.11143
2.20189
2.33941
2.46612
2.70969
2.9627
3.20926
3.53203
3.9233
4.34395
4.71359
5.03313
5.29486
5.49809
5.63052
5.73977
5.80503
5.84753
5.86002
5.86902
5.86008
5.83462
5.80607
5.77513
5.73903
5.69909
5.65699
5.61269
5.57279
5.53399
5.49735
5.46232
5.42973
5.39973
5.37097
5.34342
5.31784
5.29448
5.27308
5.25245
5.23307
5.21771
5.20365
5.18914
5.17699
5.16733
5.16023
5.15589
5.15414
5.15563
5.16082
5.16906
5.17968
5.19241
5.20669
5.22211
5.23813
5.25483
5.27237
5.28986
5.30721
5.32406
5.34146
5.35714
5.3732
5.38758
5.40158
5.41482
5.42757
5.43926
5.45032
5.45857
5.46332
5.47904
5.53218
4.6158
3.95656
3.52148
3.34368
3.20356
2.99162
2.82618
2.80189
2.83485
2.80422
2.70617
2.58147
2.48215
2.41674
2.36092
2.33031
2.28534
2.24803
2.18078
2.11948
2.05807
2.04311
2.02117
2.0502
2.07281
2.10655
2.15908
2.27396
2.42982
2.65989
2.94824
3.26857
3.57102
3.88166
4.26982
4.66089
4.96594
5.22053
5.41584
5.57188
5.67289
5.73638
5.78111
5.79816
5.8177
5.8157
5.79476
5.77187
5.74714
5.7146
5.67733
5.64091
5.60164
5.5595
5.52317
5.4892
5.45671
5.42577
5.39678
5.3688
5.34154
5.31599
5.29201
5.26964
5.24859
5.22796
5.21005
5.19665
5.18248
5.16943
5.15935
5.15166
5.14686
5.14487
5.1462
5.15132
5.15969
5.17054
5.18341
5.19809
5.21386
5.23023
5.24735
5.26523
5.28313
5.30064
5.3177
5.33502
5.3511
5.36737
5.38181
5.39625
5.40987
5.42304
5.43518
5.44702
5.45626
5.46243
5.47718
5.65256
4.84168
4.17026
3.73066
3.44283
3.29107
3.13612
2.96417
2.8668
2.83712
2.81012
2.72311
2.5865
2.47856
2.41978
2.37153
2.34615
2.31813
2.29845
2.23542
2.15625
2.08995
2.05987
2.02574
2.02671
2.04351
2.098
2.16688
2.26142
2.39452
2.5404
2.75997
3.07482
3.44332
3.8573
4.2812
4.63299
4.91675
5.16388
5.35923
5.50888
5.59202
5.66001
5.70679
5.74301
5.77119
5.75894
5.74104
5.72934
5.71038
5.68596
5.65126
5.61686
5.5889
5.54588
5.506
5.4757
5.44645
5.4177
5.39002
5.36315
5.33688
5.31187
5.28791
5.26502
5.24309
5.22185
5.20199
5.18691
5.17464
5.16061
5.14971
5.14188
5.13668
5.13436
5.13552
5.1407
5.14933
5.16046
5.17379
5.18894
5.2051
5.222
5.23934
5.25757
5.27609
5.29398
5.3113
5.32876
5.34535
5.36183
5.37658
5.39129
5.40525
5.4188
5.43124
5.44393
5.45378
5.46147
5.47603
5.73857
5.01983
4.38425
3.9134
3.61327
3.40641
3.25528
3.09841
2.97004
2.88887
2.83636
2.76112
2.65449
2.54551
2.47145
2.40709
2.35273
2.30222
2.27089
2.20789
2.14826
2.08694
2.07518
2.04316
2.07802
2.10018
2.17997
2.23982
2.28992
2.36036
2.43322
2.58733
2.83266
3.16636
3.6123
4.16312
4.62373
4.89177
5.1042
5.28469
5.42426
5.52614
5.59819
5.65006
5.68358
5.69292
5.69961
5.70029
5.69771
5.68243
5.65375
5.61897
5.59058
5.56965
5.54089
5.49573
5.46286
5.43743
5.41122
5.3847
5.35815
5.33248
5.30776
5.28361
5.25996
5.23718
5.21508
5.19361
5.17544
5.1644
5.15221
5.13946
5.13136
5.12588
5.12349
5.12477
5.13018
5.13919
5.15079
5.16453
5.1801
5.19687
5.21449
5.23232
5.251
5.27014
5.28852
5.30621
5.32387
5.34096
5.3575
5.37268
5.38791
5.40212
5.41622
5.42893
5.44192
5.45283
5.46196
5.47635
5.82185
5.13625
4.558
4.06197
3.74221
3.52803
3.37464
3.2235
3.06938
2.94769
2.87211
2.80027
2.73248
2.63991
2.53703
2.44591
2.38628
2.33324
2.29887
2.25219
2.20127
2.14353
2.10987
2.11665
2.10098
2.20542
2.40004
2.46022
2.46102
2.43969
2.43807
2.50201
2.63434
2.8545
3.21618
3.79618
4.4744
4.88381
5.07232
5.23321
5.36771
5.46555
5.53919
5.58442
5.63063
5.63683
5.64112
5.65793
5.65607
5.64193
5.61075
5.58588
5.57001
5.54707
5.52307
5.48784
5.44811
5.42221
5.40006
5.37541
5.35017
5.32568
5.3017
5.27783
5.25391
5.2303
5.20758
5.1857
5.16493
5.15137
5.14245
5.12933
5.1206
5.11592
5.1134
5.11464
5.1203
5.12982
5.1419
5.15615
5.17219
5.18968
5.20789
5.2262
5.24549
5.26531
5.28424
5.30243
5.32047
5.33804
5.35489
5.37074
5.38614
5.4006
5.41504
5.42799
5.44211
5.45329
5.46327
5.47787
5.88413
5.24425
4.68751
4.22474
3.86946
3.63423
3.46339
3.30825
3.15676
3.0385
2.94165
2.85965
2.78415
2.71856
2.63253
2.53254
2.44921
2.3972
2.34075
2.29815
2.23895
2.20858
2.17096
2.23784
2.35691
2.54371
2.79084
2.81681
2.72361
2.5915
2.51027
2.50698
2.56013
2.68193
2.91375
3.33712
4.02909
4.7409
5.05571
5.18669
5.30181
5.39735
5.47668
5.53246
5.57817
5.59181
5.59195
5.6109
5.60515
5.58255
5.5685
5.5641
5.55889
5.52916
5.49766
5.47549
5.44516
5.40851
5.38509
5.366
5.34303
5.31866
5.29543
5.27229
5.24807
5.22367
5.19997
5.17722
5.15549
5.13801
5.12962
5.12112
5.11006
5.10612
5.10371
5.10539
5.11198
5.12203
5.13471
5.14954
5.16617
5.18427
5.20323
5.2224
5.24238
5.26264
5.28227
5.30096
5.31936
5.33735
5.35455
5.37096
5.38665
5.40156
5.41655
5.42994
5.44454
5.45524
5.46718
5.48237
5.9092
5.32943
4.79399
4.35463
3.99626
3.72212
3.53626
3.38471
3.23709
3.10967
3.00634
2.93335
2.85348
2.79254
2.7212
2.64499
2.54648
2.4657
2.3906
2.3493
2.30544
2.30662
2.32095
2.47543
2.8403
3.1646
3.29416
3.23514
3.0405
2.86739
2.73104
2.65047
2.63065
2.66538
2.78815
3.03696
3.52033
4.2816
4.94885
5.16548
5.26082
5.34373
5.41122
5.47646
5.50919
5.53919
5.55938
5.564
5.55826
5.55229
5.54924
5.53853
5.52545
5.50079
5.47391
5.45069
5.4321
5.40504
5.37315
5.34905
5.33162
5.31134
5.28859
5.2654
5.24185
5.21719
5.19257
5.16937
5.14766
5.12808
5.11532
5.11177
5.10158
5.09564
5.09646
5.0986
5.1051
5.1156
5.12915
5.14458
5.16169
5.18043
5.20016
5.22041
5.24106
5.262
5.28212
5.30158
5.32064
5.33905
5.35686
5.37364
5.38998
5.40528
5.42037
5.43406
5.44971
5.46107
5.4729
5.48749
5.93549
5.39468
4.89336
4.46193
4.11004
3.82734
3.61119
3.45085
3.30828
3.17864
3.07506
2.99905
2.92563
2.86413
2.78989
2.71939
2.64029
2.55269
2.46453
2.41722
2.39884
2.42948
2.53406
2.87023
3.38903
3.85436
3.8044
3.61062
3.38667
3.2121
3.04717
2.90614
2.80291
2.75387
2.79544
2.92268
3.19428
3.73019
4.53715
5.10585
5.22179
5.29566
5.35465
5.41274
5.46659
5.49136
5.51362
5.50524
5.51133
5.5229
5.52787
5.51365
5.48224
5.46895
5.45329
5.43213
5.40749
5.39048
5.37017
5.34289
5.31825
5.30116
5.28183
5.25958
5.23605
5.21153
5.18681
5.16233
5.13974
5.11965
5.10355
5.09764
5.09757
5.08868
5.08597
5.09283
5.10234
5.1138
5.12638
5.14201
5.15999
5.17959
5.20019
5.22102
5.24246
5.26371
5.28467
5.3049
5.3242
5.34324
5.36145
5.37898
5.3958
5.41124
5.42699
5.44191
5.45751
5.46807
5.48065
5.49677
5.96619
5.45197
4.98004
4.56305
4.21106
3.92933
3.69479
3.512
3.36743
3.24159
3.13812
3.05888
2.99316
2.92436
2.85464
2.77822
2.69595
2.60608
2.54765
2.50937
2.5212
2.6084
2.87965
3.44679
4.1072
4.3963
4.20105
3.93019
3.70771
3.5231
3.34156
3.17489
3.02346
2.92864
2.90036
2.9378
3.07061
3.38115
3.98514
4.76793
5.19025
5.25621
5.31221
5.35831
5.40908
5.4408
5.46561
5.47981
5.48376
5.47713
5.48383
5.48347
5.46104
5.45426
5.43016
5.40124
5.38501
5.37043
5.35838
5.33896
5.31378
5.29106
5.27264
5.25367
5.23156
5.20717
5.182
5.15723
5.13511
5.11584
5.09904
5.08529
5.08436
5.08914
5.09108
5.08927
5.09519
5.10983
5.12695
5.14339
5.16094
5.18059
5.20187
5.2238
5.24611
5.26775
5.28946
5.30973
5.3304
5.34983
5.36872
5.38677
5.40412
5.41984
5.43716
5.45085
5.46576
5.47884
5.4926
5.507
6.00503
5.51109
5.05828
4.66251
4.30776
4.02301
3.78469
3.57791
3.42256
3.29668
3.19135
3.10869
3.04228
2.97703
2.91137
2.83035
2.7448
2.67261
2.63624
2.62494
2.68293
2.8942
3.41723
4.18499
4.69759
4.71036
4.49555
4.23814
4.01436
3.81284
3.62972
3.46492
3.30031
3.14853
3.04541
3.02519
3.07041
3.22793
3.59365
4.24206
4.93501
5.20989
5.26657
5.30826
5.35102
5.40265
5.41599
5.44073
5.45163
5.44894
5.43981
5.43978
5.42796
5.40823
5.39405
5.38286
5.37801
5.36632
5.34125
5.32232
5.3098
5.28867
5.2654
5.24557
5.22615
5.20397
5.18027
5.15611
5.13257
5.1111
5.09669
5.08697
5.07688
5.07706
5.08671
5.09727
5.10319
5.10851
5.12397
5.14459
5.16552
5.18578
5.20677
5.22937
5.25131
5.27377
5.29582
5.31774
5.33856
5.35835
5.3782
5.39644
5.41423
5.43116
5.44734
5.46292
5.47922
5.49096
5.50473
5.52005
6.03551
5.56368
5.11817
4.74829
4.40422
4.1017
3.86845
3.65552
3.47756
3.3458
3.23622
3.14815
3.0808
3.01651
2.94808
2.8672
2.79589
2.75747
2.74003
2.7786
2.93777
3.39667
4.18738
4.8962
4.98252
4.89717
4.73138
4.52961
4.3205
4.10161
3.90651
3.72279
3.55235
3.37655
3.23258
3.15165
3.15553
3.22257
3.40611
3.82135
4.47073
5.04037
5.22353
5.26687
5.30162
5.34264
5.37292
5.38882
5.40419
5.41339
5.40823
5.3983
5.40223
5.39232
5.38104
5.36934
5.35391
5.33805
5.32254
5.31138
5.30051
5.28466
5.26246
5.24133
5.22227
5.20279
5.17986
5.15547
5.13229
5.11409
5.10142
5.09081
5.08361
5.07804
5.07672
5.08969
5.1092
5.12356
5.13111
5.14589
5.16733
5.19103
5.21366
5.23586
5.25888
5.2825
5.30399
5.32628
5.34793
5.36969
5.38905
5.40798
5.42648
5.44356
5.46096
5.4761
5.49179
5.50481
5.51874
5.53386
6.08284
5.63143
5.19308
4.82893
4.50059
4.18851
3.94541
3.73593
3.5409
3.39358
3.2797
3.18532
3.10829
3.03789
2.96372
2.89651
2.85875
2.84501
2.87653
3.01498
3.39317
4.12281
4.93686
5.27281
5.18368
5.06567
4.92859
4.76379
4.58002
4.37741
4.16353
3.97636
3.80275
3.6355
3.46791
3.3361
3.27754
3.28275
3.35825
3.57464
4.01866
4.64882
5.10251
5.22046
5.25962
5.2916
5.32831
5.34638
5.3577
5.37166
5.37002
5.36444
5.37607
5.36122
5.34529
5.33903
5.33186
5.32074
5.31046
5.30184
5.28855
5.27118
5.25431
5.236
5.21757
5.20125
5.18224
5.15929
5.13811
5.12136
5.10642
5.0947
5.08965
5.08786
5.08742
5.08874
5.10029
5.12305
5.14534
5.15932
5.17358
5.1951
5.22037
5.24499
5.26808
5.29078
5.31429
5.33793
5.35861
5.38053
5.40187
5.42122
5.4397
5.45778
5.47501
5.49111
5.50656
5.52124
5.53531
5.54966
6.11685
5.68698
5.25826
4.8946
4.58335
4.27543
4.00729
3.80102
3.60295
3.43524
3.31708
3.22105
3.13009
3.04285
2.96667
2.93214
2.92325
2.95198
3.07897
3.41128
4.08163
4.95872
5.46604
5.41853
5.31945
5.22448
5.10875
4.96765
4.79736
4.59331
4.39232
4.21056
4.03144
3.86123
3.68506
3.52487
3.408
3.37937
3.39977
3.50031
3.74761
4.20792
4.78411
5.13763
5.21035
5.24409
5.27813
5.2964
5.31544
5.32892
5.32871
5.34514
5.33908
5.32301
5.32139
5.32475
5.31063
5.30011
5.29096
5.28462
5.2737
5.2615
5.24828
5.23264
5.21497
5.1979
5.18311
5.16596
5.14693
5.12956
5.11526
5.10711
5.10087
5.09488
5.09707
5.10501
5.10969
5.11972
5.1446
5.17113
5.19012
5.20603
5.22776
5.25305
5.2788
5.30354
5.32553
5.34726
5.37182
5.39647
5.41432
5.43396
5.45571
5.47354
5.49108
5.50783
5.52233
5.53828
5.55171
5.5659
6.17277
5.75749
5.3403
4.96338
4.66003
4.36095
4.07659
3.86193
3.66507
3.48445
3.35188
3.25102
3.14832
3.03488
2.98218
2.97336
3.00384
3.12285
3.43177
4.05916
4.96668
5.531
5.56135
5.51611
5.46856
5.40285
5.30368
5.17369
5.00052
4.80668
4.62888
4.43914
4.25808
4.07548
3.90719
3.73283
3.58767
3.49485
3.48499
3.51794
3.63452
3.91049
4.36952
4.87379
5.13353
5.18772
5.23032
5.25383
5.26756
5.28728
5.29712
5.30588
5.29953
5.29525
5.29454
5.2892
5.27777
5.27394
5.27322
5.27463
5.26191
5.24618
5.23793
5.2298
5.21661
5.19883
5.18435
5.16976
5.15153
5.13608
5.13085
5.12388
5.11204
5.1074
5.10646
5.11532
5.12563
5.13439
5.14743
5.17289
5.20116
5.22411
5.24178
5.2653
5.29128
5.3138
5.33638
5.36378
5.38788
5.40776
5.4285
5.45291
5.47154
5.48891
5.50768
5.52567
5.5395
5.55697
5.57171
5.58474
6.20957
5.81505
5.43011
5.0486
4.73463
4.43925
4.1537
3.92943
3.73422
3.548
3.39536
3.28205
3.16568
3.04873
3.019
3.04319
3.14887
3.43518
4.02827
4.92829
5.57129
5.68019
5.66361
5.64332
5.61376
5.566
5.47719
5.3473
5.18721
5.02128
4.84133
4.65904
4.47571
4.29797
4.12177
3.94941
3.77988
3.64004
3.57553
3.57395
3.62124
3.76178
4.06326
4.50573
4.92302
5.11293
5.16476
5.20594
5.23367
5.24222
5.25833
5.25714
5.26046
5.2565
5.25409
5.25843
5.26426
5.26339
5.2627
5.25122
5.23962
5.2354
5.23365
5.22874
5.21785
5.20324
5.18752
5.17468
5.16231
5.15629
5.1458
5.12926
5.11968
5.12205
5.12669
5.13293
5.13888
5.15014
5.16648
5.18283
5.20599
5.23509
5.26127
5.28235
5.30308
5.32832
5.35635
5.37964
5.3981
5.42581
5.44883
5.46694
5.48715
5.51206
5.52413
5.54489
5.56049
5.57464
5.58855
5.60535
6.2551
5.8852
5.51784
5.14188
4.81128
4.52255
4.23065
3.99496
3.80722
3.62078
3.44409
3.31377
3.18376
3.10899
3.09704
3.18321
3.43949
4.00308
4.86121
5.5725
5.74181
5.7598
5.77856
5.76465
5.73572
5.70004
5.61609
5.50218
5.36319
5.20298
5.0226
4.84255
4.66492
4.50161
4.33215
4.16704
3.99502
3.83883
3.71301
3.67041
3.6731
3.72939
3.88616
4.19444
4.61056
4.94445
5.07737
5.1343
5.17624
5.19044
5.21382
5.2199
5.21635
5.22513
5.2329
5.23239
5.23142
5.22705
5.227
5.22816
5.23234
5.23651
5.23222
5.22456
5.21698
5.20756
5.1939
5.18073
5.16992
5.16883
5.15483
5.13907
5.13918
5.14321
5.14702
5.14985
5.15579
5.16475
5.18226
5.20269
5.22124
5.24393
5.2735
5.29952
5.32274
5.34781
5.36905
5.39224
5.4235
5.44793
5.46018
5.48414
5.50811
5.52565
5.54398
5.56897
5.57641
5.59259
5.61209
5.62402
6.29579
5.98026
5.62803
5.25674
4.89832
4.61258
4.32257
4.06044
3.87863
3.70067
3.51415
3.34356
3.24046
3.2001
3.24968
3.46982
3.99031
4.8046
5.54968
5.76003
5.77287
5.80601
5.8508
5.87662
5.87451
5.82164
5.74487
5.65029
5.5246
5.37456
5.2096
5.02933
4.85237
4.67678
4.5099
4.34073
4.17371
4.0093
3.86968
3.77368
3.74559
3.75813
3.82757
4.00174
4.31187
4.69041
4.95549
5.04682
5.09539
5.14388
5.1653
5.18047
5.17905
5.18346
5.18951
5.19321
5.19779
5.19899
5.20367
5.21083
5.22004
5.22519
5.22409
5.22071
5.2178
5.21126
5.20228
5.18916
5.17807
5.17317
5.16776
5.16325
5.16288
5.16565
5.16793
5.16869
5.17566
5.1859
5.2012
5.22164
5.24121
5.26216
5.28764
5.3146
5.33971
5.36279
5.38726
5.4189
5.43964
5.45561
5.48212
5.51086
5.52239
5.54583
5.56969
5.58193
5.5961
5.62038
5.62635
5.63968
6.30744
6.02962
5.69777
5.35983
5.0037
4.70772
4.4266
4.14346
3.94669
3.77686
3.58659
3.41844
3.34904
3.37376
3.54927
4.026
4.79523
5.54418
5.77846
5.7605
5.77278
5.81503
5.88172
5.92944
5.94563
5.91301
5.85893
5.77562
5.66353
5.53072
5.37859
5.21138
5.0351
4.85511
4.68063
4.51165
4.34359
4.17986
4.01588
3.88528
3.82988
3.81678
3.83821
3.91974
4.10784
4.40771
4.74298
4.95254
5.00828
5.05575
5.0932
5.12427
5.14121
5.14931
5.14796
5.15345
5.16036
5.1682
5.18131
5.19215
5.20228
5.21139
5.21831
5.22043
5.21945
5.21637
5.20999
5.20092
5.19354
5.18567
5.17744
5.17568
5.18216
5.18654
5.18826
5.18799
5.19324
5.20471
5.22364
5.2422
5.25937
5.28238
5.30448
5.32937
5.35763
5.38442
5.41285
5.43334
5.45263
5.48159
5.50154
5.5212
5.54565
5.57336
5.58611
5.60303
5.62643
5.63722
5.6463
5.6659
6.32832
6.06629
5.77122
5.44461
5.11725
4.80147
4.52393
4.23769
4.01138
3.84561
3.647
3.56357
3.55379
3.6981
4.12294
4.85481
5.60942
5.85704
5.8015
5.77132
5.78575
5.81686
5.85773
5.90411
5.93569
5.9398
5.91714
5.86573
5.78512
5.67365
5.5351
5.38103
5.21466
5.047
4.87431
4.70698
4.54004
4.36524
4.18939
4.0369
3.92105
3.87902
3.87395
3.90594
4.00365
4.2057
4.49317
4.78505
4.93932
4.9801
5.01948
5.05074
5.0757
5.0999
5.11449
5.12781
5.14013
5.14978
5.15744
5.17514
5.19101
5.20124
5.21238
5.21817
5.21962
5.21903
5.21625
5.21068
5.2066
5.19824
5.19451
5.20158
5.20527
5.20266
5.20191
5.2054
5.21553
5.23111
5.25048
5.26779
5.28238
5.30214
5.32866
5.35335
5.37814
5.40578
5.42911
5.4507
5.47963
5.50284
5.52526
5.54704
5.57553
5.59532
5.60829
5.62742
5.64359
5.6552
5.68023
5.68754
6.20239
6.07808
5.81675
5.53784
5.23454
4.90906
4.61681
4.32871
4.07677
3.91115
3.78226
3.74622
3.89443
4.30231
5.00778
5.76232
6.02815
5.93051
5.82406
5.78671
5.78509
5.79499
5.80311
5.8242
5.85392
5.88406
5.8971
5.87882
5.83395
5.75945
5.65553
5.52618
5.37673
5.21437
5.04863
4.87928
4.71382
4.54681
4.38117
4.20863
4.05289
3.9554
3.92419
3.92546
3.96908
4.07987
4.28601
4.55449
4.80481
4.92126
4.95068
4.97528
5.00504
5.03842
5.06323
5.0876
5.11082
5.13042
5.14409
5.1562
5.17547
5.19497
5.21071
5.21833
5.22127
5.22323
5.22259
5.21943
5.21446
5.21138
5.21478
5.22142
5.21744
5.21495
5.21939
5.22935
5.24287
5.26148
5.27583
5.28957
5.30678
5.3273
5.35226
5.37766
5.4036
5.429
5.4569
5.48423
5.50164
5.52302
5.55472
5.57833
5.59667
5.61596
5.63664
5.65314
5.67379
5.6893
5.69847
5.70485
5.58982
6.12033
5.88095
5.60181
5.30289
5.00148
4.70154
4.41913
4.1664
4.02313
4.01072
4.09088
4.512
5.26026
6.05311
6.32846
6.18069
6.0138
5.91325
5.8704
5.83301
5.79887
5.76852
5.75683
5.76337
5.78746
5.81107
5.81771
5.80423
5.76626
5.70147
5.61
5.49456
5.35897
5.20909
5.05239
4.89097
4.72888
4.56485
4.39327
4.23216
4.08672
4.00576
3.97837
3.98177
4.03221
4.15071
4.35621
4.6119
4.82792
4.91959
4.92677
4.94578
4.96974
5.00007
5.03589
5.0691
5.10107
5.12938
5.14987
5.17229
5.19384
5.21119
5.22122
5.22542
5.2286
5.23151
5.23022
5.22599
5.22413
5.22353
5.23162
5.23735
5.24197
5.24856
5.25926
5.27408
5.29354
5.30688
5.31614
5.33427
5.35892
5.38481
5.40902
5.43436
5.45941
5.48641
5.51271
5.53732
5.56099
5.581
5.60199
5.62169
5.6416
5.6686
5.68458
5.6996
5.71507
5.72485
5.73451
4.35233
5.68515
5.79858
5.58067
5.33755
5.05681
4.77963
4.48698
4.30957
4.2501
4.36349
4.77559
5.53982
6.40187
6.7085
6.51685
6.28417
6.12351
6.03354
5.95704
5.8898
5.81639
5.74753
5.69656
5.67051
5.66572
5.67158
5.68194
5.68341
5.67115
5.63905
5.58483
5.50781
5.41081
5.29548
5.16502
5.02318
4.87289
4.71797
4.55968
4.39218
4.23479
4.1056
4.04324
4.01885
4.02329
4.07609
4.20397
4.40597
4.63968
4.835
4.91135
4.9226
4.92316
4.94116
4.97482
5.01629
5.05885
5.0987
5.13508
5.16348
5.19109
5.21204
5.22565
5.23227
5.23778
5.24284
5.24599
5.24441
5.23797
5.24132
5.24994
5.25855
5.26381
5.27177
5.28542
5.30606
5.32399
5.3342
5.34498
5.36512
5.39065
5.4163
5.43983
5.46528
5.49188
5.5185
5.54394
5.56997
5.59271
5.61715
5.63704
5.65197
5.67323
5.69926
5.71506
5.72419
5.74526
5.76247
5.7643
3.10239
4.9078
5.75785
5.65655
5.43437
5.18595
4.89806
4.67001
4.54182
4.65777
5.10541
5.91092
6.81577
7.15566
6.92675
6.63253
6.41827
6.29587
6.19823
6.0999
5.99716
5.88393
5.78528
5.70337
5.63974
5.59472
5.56749
5.55346
5.54399
5.53266
5.51407
5.48526
5.44158
5.38101
5.30296
5.20573
5.09439
4.96938
4.83201
4.69047
4.53614
4.37565
4.22724
4.11997
4.07158
4.04287
4.05229
4.11725
4.23688
4.4434
4.67343
4.84999
4.91957
4.91847
4.92074
4.93466
4.96509
5.00874
5.05561
5.10531
5.14867
5.18413
5.21276
5.23161
5.24259
5.24646
5.25326
5.26123
5.26399
5.26079
5.26551
5.269
5.27557
5.28807
5.30466
5.32392
5.3425
5.35484
5.36489
5.37992
5.40142
5.42652
5.4496
5.47307
5.49837
5.52285
5.54972
5.57542
5.60061
5.62387
5.64685
5.67213
5.69174
5.70446
5.72247
5.74838
5.76524
5.77902
5.79313
5.79928
2.31284
3.89425
5.32105
5.76463
5.56858
5.32168
5.04999
4.93283
4.9717
5.43371
6.34571
7.34136
7.66781
7.38408
7.02267
6.75646
6.60796
6.47737
6.34421
6.22712
6.09217
5.95928
5.83991
5.7306
5.6337
5.55458
5.49355
5.44797
5.41203
5.38085
5.35206
5.32336
5.29194
5.25265
5.20454
5.1419
5.06535
4.97473
4.86897
4.74856
4.61915
4.47506
4.33092
4.20056
4.11221
4.06758
4.04114
4.0504
4.11505
4.26444
4.45012
4.66909
4.85204
4.92181
4.9264
4.93043
4.94503
4.97247
5.0146
5.06431
5.11605
5.16294
5.20366
5.23026
5.24546
5.25554
5.26518
5.27191
5.28068
5.28694
5.28572
5.28938
5.29938
5.31754
5.33737
5.3553
5.36903
5.38102
5.39482
5.41135
5.43322
5.45694
5.47944
5.50071
5.52421
5.55071
5.57641
5.60381
5.63034
5.65534
5.67931
5.70239
5.72688
5.74517
5.76128
5.7772
5.79505
5.81192
5.82511
5.83424
1.41555
2.51874
4.12748
5.31172
5.46319
5.29841
5.16743
5.28578
5.82224
6.86375
7.97186
8.28816
7.93279
7.48925
7.16478
6.98232
6.84409
6.6867
6.5371
6.38608
6.23378
6.09239
5.95581
5.82243
5.69308
5.58054
5.48792
5.41097
5.34544
5.28817
5.23709
5.19236
5.15288
5.11483
5.07601
5.03122
4.97692
4.91252
4.83595
4.7441
4.63829
4.52
4.38917
4.26074
4.14827
4.07989
4.03771
4.01352
4.04445
4.11115
4.23463
4.45459
4.68335
4.85879
4.94083
4.95279
4.95582
4.96915
4.99555
5.03305
5.07817
5.1303
5.18338
5.22215
5.24323
5.25823
5.27004
5.27806
5.28965
5.30129
5.3093
5.31238
5.32642
5.3465
5.36592
5.38164
5.3957
5.41026
5.4259
5.44269
5.46243
5.48515
5.50632
5.52795
5.55164
5.57625
5.60255
5.62955
5.65723
5.68451
5.71071
5.73415
5.75628
5.77851
5.79697
5.81315
5.82952
5.84769
5.86338
5.87135
0.981033
1.5967
2.96687
4.60575
5.38843
5.45592
5.54072
6.20855
7.58042
8.70299
8.93091
8.50634
7.95864
7.54128
7.32575
7.18193
7.02451
6.84751
6.67984
6.51663
6.36534
6.20834
6.04787
5.89649
5.75326
5.61955
5.50122
5.3977
5.30605
5.22344
5.14905
5.08193
5.0233
4.97372
4.92971
4.88853
4.84516
4.79644
4.74135
4.67451
4.59031
4.49777
4.39896
4.28828
4.17325
4.08048
4.02292
3.98265
3.97023
3.98474
4.07218
4.23209
4.42268
4.65195
4.85198
4.9594
4.98862
4.99787
5.0071
5.02466
5.05402
5.10069
5.15712
5.20463
5.23429
5.25362
5.26604
5.28301
5.29601
5.30948
5.32079
5.32944
5.34654
5.36729
5.38682
5.40342
5.41918
5.43457
5.44986
5.46647
5.48547
5.50666
5.52925
5.55136
5.57442
5.6
5.62696
5.65573
5.68484
5.71295
5.74144
5.76847
5.79269
5.81443
5.8347
5.85346
5.86935
5.88739
5.90437
5.91266
1.02581
1.23459
2.15174
3.64904
4.95462
5.5653
6.43104
8.22243
9.66254
9.74537
9.19419
8.53383
8.02198
7.75018
7.5864
7.43839
7.24893
7.0549
6.87887
6.71059
6.5379
6.36034
6.18065
6.00738
5.84673
5.69708
5.55971
5.43455
5.31971
5.21438
5.1179
5.02867
4.94884
4.88034
4.8237
4.77502
4.72942
4.6817
4.63079
4.57401
4.50845
4.43169
4.35397
4.27051
4.16841
4.07157
4.00016
3.94582
3.90842
3.90287
3.94966
4.02622
4.17371
4.4003
4.64836
4.85709
4.98675
5.03242
5.04054
5.04635
5.0622
5.09607
5.14453
5.1897
5.22102
5.24493
5.26259
5.28289
5.29653
5.30994
5.32723
5.34429
5.36222
5.38146
5.40208
5.42258