/*--------------------------------*- C++ -*----------------------------------*\
| =========                 |                                                 |
| \\      /  F ield         | OpenFOAM: The Open Source CFD Toolbox           |
|  \\    /   O peration     | Version:  v2106                                 |
|   \\  /    A nd           | Website:  www.openfoam.com                      |
|    \\/     M anipulation  |                                                 |
\*---------------------------------------------------------------------------*/
FoamFile
{
    version     2.0;
    format      ascii;
    arch        "LSB;label=32;scalar=64";
    class       surfaceScalarField;
    location    "2";
    object      phi;
}
// * * * * * * * * * * * * * * * * * * * * * * * * * * * * * * * * * * * * * //

dimensions      [1 0 -1 0 0 0 0];

oriented        oriented;

internalField   nonuniform List<scalar> 
10325
(
0.0084507
-8.42154e-17
0.0084507
2.7826e-16
0.0084507
-1.41971e-15
0.0084507
-1.86713e-14
0.0084507
-5.06204e-14
0.0084507
-3.92791e-13
0.0084507
5.87433e-12
0.0084507
3.36223e-11
0.0084506
5.23748e-10
0.00845026
3.76872e-09
0.00844376
4.16059e-08
0.00840423
3.43274e-07
0.00800665
3.45816e-06
0.00698849
2.3562e-05
0.00620587
9.66645e-05
0.00761564
0.000741568
0.00698465
0.000631873
0.00627573
0.000654729
0.00555664
0.000747549
0.00480438
0.000777357
0.00398671
0.000846241
0.00306451
0.000957719
0.00209452
0.00101424
0.00110339
0.0010305
0.00112981
0.0084507
2.95418e-16
0.0084507
-2.0685e-15
0.0084507
-1.17205e-15
0.0084507
-6.1169e-14
0.0084507
-5.80836e-13
0.0084507
-3.60445e-12
0.0084507
6.48691e-12
0.0084507
5.8502e-11
0.00845061
1.05066e-09
0.00845027
7.43814e-09
0.00844391
8.36249e-08
0.00840534
6.84579e-07
0.00801475
6.95616e-06
0.00699911
4.788e-05
0.00620845
0.000196933
0.0075893
0.00150916
0.00697587
0.00124851
0.00626994
0.00131094
0.00554823
0.00149163
0.00478952
0.00156531
0.00393892
0.0017246
0.00302861
0.00190365
0.00209378
0.00199269
0.00108068
0.00208272
0.0022373
0.0084507
5.14671e-16
0.0084507
-4.83942e-15
0.0084507
1.57068e-15
0.0084507
-1.95181e-13
0.0084507
-1.23844e-12
0.0084507
-7.26315e-12
0.0084507
9.14605e-12
0.0084507
7.31273e-11
0.00845061
1.56999e-09
0.0084503
1.04407e-08
0.00844422
1.23133e-07
0.00840767
9.86194e-07
0.00803228
1.02097e-05
0.00702504
7.16491e-05
0.00622718
0.000291793
0.00752539
0.00236521
0.00698458
0.00177825
0.00632077
0.00194258
0.00560324
0.00222275
0.00483451
0.00236815
0.00400102
0.00259094
0.00312536
0.00281805
0.00214901
0.00301625
0.0011039
0.00317198
0.00337364
0.0084507
-2.04209e-16
0.0084507
2.28062e-16
0.0084507
8.96928e-15
0.0084507
1.84695e-14
0.0084507
1.02555e-12
0.0084507
-5.27041e-12
0.0084507
1.49415e-11
0.0084507
7.54892e-11
0.00845062
2.01384e-09
0.00845033
1.28176e-08
0.00844468
1.55991e-07
0.00841095
1.24635e-06
0.00805792
1.30387e-05
0.00706293
9.50937e-05
0.00624439
0.000388057
0.00746463
0.00328877
0.00706735
0.00216073
0.00646621
0.0025391
0.00573602
0.00292448
0.00493854
0.0032033
0.00410768
0.00345084
0.0031824
0.00377925
0.00219886
0.00404368
0.0011339
0.00427923
0.00453736
0.0084507
-9.75321e-16
0.0084507
1.88152e-15
0.0084507
6.53462e-15
0.0084507
2.0826e-14
0.0084507
1.63374e-12
0.0084507
-1.58906e-11
0.0084507
2.08458e-11
0.0084507
-3.65613e-11
0.00845063
2.45124e-09
0.00845037
8.94586e-09
0.00844532
1.76501e-07
0.00841527
1.2356e-06
0.00809385
1.5098e-05
0.00711956
0.000117344
0.00628567
0.000468592
0.00741235
0.00411206
0.00710138
0.00264674
0.00651566
0.0031326
0.0058166
0.0035703
0.00511652
0.00395209
0.00427742
0.00432011
0.00336032
0.00473259
0.002332
0.00511859
0.00121466
0.00543938
0.00578461
0.0084507
-6.01895e-16
0.0084507
7.53949e-15
0.0084507
5.94305e-15
0.0084507
7.29178e-14
0.0084507
-9.29235e-14
0.0084507
2.11861e-12
0.0084507
1.39897e-10
0.0084507
-3.35462e-10
0.00845063
3.85515e-09
0.00845043
-3.64976e-09
0.00844597
1.5854e-07
0.00842043
1.0515e-06
0.0081441
5.25884e-06
0.0072088
0.000137795
0.00634929
0.000533635
0.00725554
0.0048818
0.00713693
0.00320794
0.00658649
0.00370076
0.00598661
0.00411716
0.00529062
0.00466786
0.00443557
0.0051989
0.00347678
0.00572369
0.00245298
0.00618235
0.00131418
0.00662858
0.00714222
0.0084507
-1.01807e-16
0.0084507
4.26894e-15
0.0084507
3.559e-15
0.0084507
1.30256e-15
0.0084507
-9.20526e-13
0.0084507
5.9705e-12
0.0084507
1.09988e-10
0.0084507
-3.48194e-11
0.00845066
3.9954e-09
0.00845031
-2.46143e-09
0.00844708
1.81995e-07
0.0084203
1.06754e-06
0.00819633
4.51977e-06
0.00730928
0.00014821
0.00640715
0.000578487
0.00694182
0.00563341
0.00714029
0.00382044
0.00664482
0.00422017
0.0060635
0.00464516
0.00538336
0.00537345
0.00461441
0.00600127
0.00379718
0.00657578
0.0027972
0.00723048
0.00152747
0.0079487
0.00871573
0.0084507
-1.10128e-16
0.0084507
9.90066e-16
0.0084507
8.4085e-15
0.0084507
-3.39855e-14
0.0084507
6.60828e-13
0.0084507
2.63978e-12
0.0084507
5.10341e-11
0.0084507
1.60781e-10
0.00845067
3.55463e-09
0.00845039
6.49039e-09
0.00844804
2.28199e-07
0.0084285
-7.32853e-07
0.008257
1.40986e-05
0.00744513
0.000139518
0.00650955
0.00059001
0.00668858
0.00616589
0.00703417
0.0047677
0.00655695
0.00469091
0.00604624
0.00508839
0.00550911
0.00592375
0.00488248
0.00664296
0.00404519
0.00743802
0.00294937
0.0083534
0.00168697
0.00927605
0.0105043
0.0084507
-1.42329e-16
0.0084507
5.58066e-16
0.0084507
-5.08355e-16
0.0084507
5.24129e-14
0.0084507
1.05166e-13
0.0084507
4.04176e-12
0.0084507
1.53554e-11
0.0084507
2.1711e-10
0.00845069
2.12033e-09
0.00845048
5.8296e-09
0.00844882
2.13866e-07
0.00843425
-9.72302e-07
0.00832343
1.1306e-05
0.0076414
0.000107316
0.0068115
0.000391069
0.00689087
0.00589644
0.0075284
0.00631972
0.00677463
0.00539945
0.00624734
0.00557178
0.00573015
0.00640525
0.00521803
0.00717876
0.00450138
0.00818526
0.00356843
0.0093599
0.00241924
0.010466
0.0130787
0.0084507
5.69206e-19
0.0084507
1.32598e-16
0.0084507
1.16823e-17
0.0084507
2.45413e-14
0.0084507
1.39567e-13
0.0084507
2.13148e-12
0.0084507
5.11072e-12
0.0084507
8.74333e-11
0.00845069
1.75971e-09
0.00845057
-2.70491e-09
0.0084497
1.16981e-07
0.00843824
3.22946e-07
0.00836285
7.62374e-06
0.00779244
7.51923e-05
0.00691624
0.000216417
0.00734381
0.00462136
0.00824129
0.00804914
0.00730282
0.00632777
0.00670789
0.00612286
0.0060589
0.00702755
0.0055599
0.00768386
0.00496188
0.00879027
0.00408948
0.0102878
0.00250652
0.0120867
0.0161157
0.0084507
-4.88975e-17
0.0084507
-1.81441e-16
0.0084507
1.22141e-15
0.0084507
-2.04276e-14
0.0084507
2.24709e-13
0.0084507
-2.62875e-12
0.0084507
4.61899e-12
0.0084507
-3.0869e-11
0.00845069
1.6607e-09
0.00845059
5.31196e-09
0.00845004
6.29572e-08
0.00844126
5.78952e-07
0.00838702
5.84572e-06
0.0079013
5.93924e-05
0.00687032
0.000255422
0.00729337
0.00325888
0.00907816
0.00910572
0.00805315
0.00736935
0.00736729
0.0068176
0.00671748
0.00767896
0.00613827
0.00822821
0.00570173
0.0092542
0.00537297
0.0108189
0.00530713
0.0124948
0.0138102
0.00820354
0.0084507
6.58382e-17
0.0084507
1.14898e-16
0.0084507
3.21599e-15
0.0084507
2.59785e-14
0.0084507
1.00094e-13
0.0084507
-3.26073e-13
0.0084507
2.60058e-11
0.0084507
1.09504e-10
0.0084507
5.10807e-10
0.0084506
6.70104e-09
0.0084503
5.1018e-08
0.00844383
5.36597e-07
0.0084097
4.31537e-06
0.00806409
-2.01004e-05
0.00704668
0.000342481
0.00706012
0.00227502
0.00943598
0.00932198
0.00893804
0.00793009
0.0080949
0.00771018
0.00747044
0.00831525
0.00697002
0.00874
0.00670755
0.0095385
0.00696126
0.010613
0.00742789
0.0117843
0.0123518
0.00958375
0.0084507
6.72476e-17
0.0084507
3.19569e-17
0.0084507
1.97089e-15
0.0084507
2.82165e-14
0.0084507
1.60354e-14
0.0084507
2.39408e-12
0.0084507
6.1017e-12
0.0084507
1.89038e-10
0.0084507
-3.24755e-11
0.00845064
6.67427e-09
0.00845046
1.82952e-08
0.00844621
4.37602e-07
0.00842306
2.42312e-06
0.00816237
-3.35026e-05
0.00727859
0.000325225
0.00695571
0.00160364
0.00915798
0.00871482
0.00940502
0.00843661
0.00888761
0.00828625
0.00839304
0.00889155
0.00787096
0.00929614
0.00763721
0.00969322
0.00796733
0.0103776
0.00865536
0.0110713
0.0113591
0.0102806
0.0084507
6.50521e-18
0.0084507
-4.34494e-17
0.0084507
6.08292e-16
0.0084507
6.14865e-15
0.0084507
1.73987e-14
0.0084507
1.168e-12
0.0084507
7.9342e-13
0.0084507
1.24415e-10
0.0084507
2.07742e-10
0.00845067
4.77428e-09
0.00845042
2.24141e-08
0.00844832
3.13125e-07
0.00842869
1.79749e-06
0.00825791
2.13167e-05
0.00753881
0.000210738
0.00699287
0.00108977
0.00825825
0.0079889
0.00936641
0.00892421
0.00919104
0.0085403
0.00891301
0.00911338
0.00867466
0.0095196
0.00855292
0.0098049
0.00883521
0.0101521
0.00943925
0.0105365
0.0105021
0.0107797
0.0084507
-1.35796e-17
0.0084507
1.36338e-17
0.0084507
5.45598e-16
0.0084507
5.68146e-15
0.0084507
4.78336e-14
0.0084507
-3.68684e-13
0.0084507
1.63932e-12
0.0084507
3.64822e-11
0.0084507
2.15409e-10
0.0084507
2.41763e-09
0.00845054
1.84042e-08
0.00844976
1.80139e-07
0.00843877
1.4889e-06
0.00836606
1.3442e-05
0.00783078
0.000121708
0.0071356
0.000646011
0.00809118
0.0060343
0.00966761
0.00999039
0.00934401
0.00886045
0.00930395
0.00913043
0.00927836
0.00955024
0.00928123
0.00981808
0.00944522
0.0100168
0.0098743
0.010154
0.00987759
0.010845
0.0084507
-1.14654e-17
0.0084507
2.06215e-16
0.0084507
-3.95788e-16
0.0084507
1.04863e-14
0.0084507
7.55144e-15
0.0084507
1.32855e-13
0.0084507
3.1532e-12
0.0084507
8.22875e-12
0.0084507
1.63227e-10
0.0084507
9.35417e-10
0.00845059
1.20676e-08
0.00845019
8.69518e-08
0.00844274
9.37065e-07
0.00840062
7.6337e-06
0.00800951
4.11248e-06
0.00712724
0.00053324
0.00799197
0.00404352
0.0103988
0.0105849
0.00994955
0.00933669
0.00985278
0.00934413
0.00982625
0.00957958
0.00988496
0.00982269
0.0100483
0.00991305
0.0103681
0.00991604
0.00951055
0.0109447
0.0084507
-2.0898e-17
0.0084507
1.85236e-16
0.0084507
1.25496e-17
0.0084507
6.7165e-15
0.0084507
3.33842e-14
0.0084507
4.36301e-13
0.0084507
3.13287e-12
0.0084507
-4.83518e-12
0.0084507
1.88889e-10
0.0084507
1.59757e-10
0.00845063
9.15002e-09
0.00845044
3.43239e-08
0.00844594
6.25278e-07
0.0084232
3.55817e-06
0.0081557
-2.41005e-05
0.00731533
0.000440772
0.0076315
0.00251633
0.0105619
0.00957673
0.0107115
0.00998753
0.0104274
0.009829
0.01028
0.00975061
0.0103181
0.00979952
0.0104809
0.00977225
0.0107613
0.00968797
0.00925741
0.0111714
0.0084507
-1.21973e-18
0.0084507
3.91939e-17
0.0084507
1.82851e-16
0.0084507
2.44748e-15
0.0084507
2.15008e-14
0.0084507
1.63498e-13
0.0084507
8.70117e-13
0.0084507
-5.33041e-13
0.0084507
1.23038e-10
0.0084507
2.32969e-10
0.00845067
5.58344e-09
0.00845044
2.45005e-08
0.0084485
3.68277e-07
0.00843067
1.93019e-06
0.00828279
2.47966e-05
0.00764344
0.00024421
0.00747764
0.0014452
0.00953168
0.00789058
0.010905
0.0105235
0.0107669
0.0101159
0.0106367
0.00980161
0.0106658
0.00972305
0.0108273
0.00964108
0.0110687
0.00951954
0.00909547
0.0113736
0.0084507
2.98156e-18
0.0084507
3.2255e-18
0.0084507
2.18928e-16
0.0084507
2.26815e-16
0.0084507
1.73885e-14
0.0084507
1.68347e-14
0.0084507
1.01645e-12
0.0084507
6.46735e-12
0.0084507
1.50485e-11
0.0084507
3.12474e-10
0.0084507
1.18657e-09
0.00845055
2.14781e-08
0.00845011
1.50469e-07
0.0084403
1.252e-06
0.00838906
1.34671e-05
0.00797872
7.13551e-05
0.00734066
0.000943359
0.00867516
0.0054094
0.0111762
0.0108989
0.0110773
0.0101792
0.0111106
0.00995936
0.0110906
0.00977185
0.0111886
0.0096014
0.01138
0.00940597
0.00898643
0.0116082
0.0084507
2.24972e-18
0.0084507
4.3097e-18
0.0084507
7.77102e-17
0.0084507
1.48129e-16
0.0084507
6.70159e-15
0.0084507
-1.86954e-14
0.0084507
5.39371e-13
0.0084507
3.49095e-12
0.0084507
7.99745e-12
0.0084507
1.28699e-10
0.0084507
1.83501e-10
0.00845063
1.28523e-08
0.00845012
7.6986e-08
0.00844556
5.63916e-07
0.0084102
7.52798e-06
0.00814685
1.21688e-05
0.00747479
0.000560523
0.00835796
0.00327322
0.0114907
0.00984618
0.0118145
0.0106402
0.0116943
0.010333
0.0115399
0.009991
0.0114986
0.00968392
0.011583
0.00937814
0.00892775
0.0117444
0.0084507
1.35525e-18
0.0084507
1.54499e-18
0.0084507
8.70343e-17
0.0084507
4.80031e-16
0.0084507
6.72102e-15
0.0084507
4.54812e-14
0.0084507
-2.02541e-14
0.0084507
2.70273e-12
0.0084507
7.08468e-12
0.0084507
1.50713e-10
0.0084507
1.19452e-09
0.00845071
2.7861e-09
0.00845032
6.05021e-08
0.00844969
3.36104e-07
0.00843
3.23431e-06
0.00829558
3.50629e-05
0.00780003
9.0918e-05
0.00802363
0.00179931
0.0104951
0.00783156
0.0121189
0.0111347
0.012018
0.0107216
0.0118652
0.0101465
0.0117929
0.00976732
0.0118226
0.00937847
0.00890114
0.0119207
0.0084507
-5.42101e-20
0.0084507
1.73472e-18
0.0084507
4.74338e-17
0.0084507
1.5683e-16
0.0084507
3.6926e-15
0.0084507
2.54573e-14
0.0084507
-6.10953e-14
0.0084507
1.44392e-12
0.0084507
1.76923e-12
0.0084507
6.36357e-11
0.0084507
6.73632e-10
0.00845069
6.04102e-10
0.00845058
3.27941e-08
0.00844972
1.30471e-07
0.00844251
1.18975e-06
0.00838848
1.76879e-05
0.00805393
-5.5318e-05
0.00750384
0.0011011
0.00910373
0.00506735
0.012194
0.010842
0.0122548
0.01086
0.0122603
0.0103772
0.0121495
0.00993004
0.0121081
0.00944807
0.00893637
0.0121425
0.0084507
7.86047e-19
0.0084507
2.30393e-18
0.0084507
1.81333e-17
0.0084507
4.90873e-17
0.0084507
9.36236e-16
0.0084507
3.04701e-15
0.0084507
7.13016e-14
0.0084507
-8.2047e-16
0.0084507
4.2671e-12
0.0084507
-1.8845e-12
0.0084507
2.64336e-10
0.0084507
2.2143e-09
0.00845073
4.93629e-09
0.00844994
1.0813e-07
0.00845005
5.41422e-07
0.00841764
5.9648e-06
0.00816627
5.78218e-05
0.00775078
0.000174891
0.0087583
0.0029449
0.0120617
0.00898183
0.0129791
0.0112841
0.012753
0.0108671
0.0126083
0.0101399
0.0125135
0.00961872
0.009073
0.012449
0.0084507
4.87891e-19
0.0084507
8.40257e-19
0.0084507
4.90601e-18
0.0084507
5.23128e-17
0.0084507
3.09811e-16
0.0084507
5.3752e-16
0.0084507
3.88548e-14
0.0084507
-1.73425e-13
0.0084507
1.83682e-12
0.0084507
-1.53578e-11
0.0084507
1.21018e-10
0.0084507
1.22356e-09
0.00845068
1.37825e-09
0.00845055
-5.06911e-10
0.00844934
1.73134e-07
0.00843947
1.87584e-06
0.00836827
2.79615e-05
0.00802031
-0.000109227
0.00786781
0.00166786
0.0100058
0.00643304
0.012841
0.0111979
0.0127504
0.0109316
0.0128838
0.0102309
0.0128605
0.00978056
0.00923496
0.0127958
0.0084507
-2.71051e-19
0.0084507
-1.19262e-18
0.0084507
2.24972e-18
0.0084507
6.966e-18
0.0084507
2.26598e-16
0.0084507
1.36905e-15
0.0084507
1.57629e-14
0.0084507
4.66437e-14
0.0084507
4.68926e-13
0.0084507
6.47215e-12
0.0084507
-2.28687e-11
0.0084507
5.40315e-10
0.00845069
1.48739e-09
0.00845052
-1.42987e-08
0.00845031
2.27112e-07
0.00845118
8.63408e-07
0.00841186
8.04591e-06
0.00810498
7.2683e-05
0.00781104
0.000362746
0.00935739
0.00372464
0.0128729
0.00957598
0.0134922
0.0113177
0.01329
0.010687
0.0132182
0.00997804
0.00943131
0.0131568
0.0084507
1.0842e-19
0.0084507
-8.13152e-19
0.0084507
7.86047e-19
0.0084507
-7.64363e-18
0.0084507
9.21843e-17
0.0084507
8.3798e-16
0.0084507
7.18306e-15
0.0084507
-1.2867e-15
0.0084507
2.92789e-13
0.0084507
2.09222e-12
0.0084507
-3.01186e-11
0.0084507
2.30395e-10
0.0084507
1.40619e-10
0.00845067
9.93257e-09
0.00845051
8.57416e-08
0.00844911
2.38307e-07
0.00843719
1.86551e-06
0.00835775
3.07864e-05
0.00803893
-8.84337e-05
0.0083776
0.00188413
0.0110201
0.00694587
0.0135575
0.0112426
0.0134623
0.0108462
0.0135949
0.0101364
0.00966282
0.0135418
0.0084507
-4.60786e-19
0.0084507
-1.0842e-19
0.0084507
1.68051e-18
0.0084507
2.27682e-18
0.0084507
2.60209e-17
0.0084507
1.94831e-16
0.0084507
1.80173e-15
0.0084507
4.59938e-15
0.0084507
9.05542e-14
0.0084507
9.03905e-13
0.0084507
2.2795e-12
0.0084507
2.97225e-11
0.0084507
4.6074e-10
0.0084507
2.51053e-09
0.00845045
3.75236e-08
0.00845062
2.34414e-07
0.00845123
1.13103e-06
0.00840829
9.0583e-06
0.00809037
8.67413e-05
0.00775844
0.000536773
0.00955563
0.00403597
0.0133363
0.00953324
0.0140483
0.0110519
0.0139468
0.0106138
0.00991519
0.013845
0.0084507
4.60786e-19
0.0084507
9.75782e-19
0.0084507
1.19262e-18
0.0084507
2.46656e-18
0.0084507
1.37423e-17
0.0084507
9.48677e-17
0.0084507
4.91415e-16
0.0084507
5.53575e-15
0.0084507
3.31342e-14
0.0084507
5.06862e-13
0.0084507
-1.41838e-12
0.0084507
2.19824e-11
0.0084507
1.77978e-10
0.0084507
6.69383e-10
0.00845068
1.38137e-08
0.00845049
1.02313e-07
0.00844909
2.96926e-07
0.00843669
1.39494e-06
0.00836496
3.17635e-05
0.00809433
-3.25325e-05
0.00864077
0.00198482
0.0114655
0.00693038
0.0140788
0.0109167
0.0140532
0.0107817
0.0101169
0.014143
0.0084507
-4.60786e-19
0.0084507
-9.48677e-19
0.0084507
-2.05998e-18
0.0084507
-4.2826e-18
0.0084507
2.08709e-18
0.0084507
2.93006e-17
0.0084507
1.97975e-16
0.0084507
2.18152e-15
0.0084507
9.00164e-15
0.0084507
1.33534e-13
0.0084507
6.99641e-13
0.0084507
9.1471e-12
0.0084507
5.4844e-11
0.0084507
5.80539e-10
0.0084507
7.02568e-10
0.00845054
4.10127e-08
0.00845086
2.41241e-07
0.00845034
1.21739e-06
0.00841106
6.41275e-06
0.00814444
9.27567e-05
0.00778573
0.000687603
0.00968913
0.00388626
0.0136339
0.00899639
0.0145053
0.0109204
0.0105961
0.0143489
0.0084507
-2.1684e-19
0.0084507
-7.58942e-19
0.0084507
-1.24683e-18
0.0084507
-1.97867e-18
0.0084507
-2.30393e-18
0.0084507
4.68917e-18
0.0084507
7.7656e-17
0.0084507
6.11327e-16
0.0084507
2.28268e-15
0.0084507
4.47716e-14
0.0084507
1.75571e-13
0.0084507
2.34072e-12
0.0084507
2.72428e-11
0.0084507
1.23801e-10
0.0084507
-1.75235e-09
0.00845069
1.57075e-08
0.00845051
1.00313e-07
0.00844926
3.18309e-07
0.00843838
-2.01279e-06
0.00838666
2.93213e-05
0.00817731
5.12092e-05
0.00867213
0.0018942
0.0114237
0.00646856
0.0143255
0.0105811
0.0107162
0.0143066
0.0084507
-1.89735e-19
0.0084507
-3.79471e-19
0.0084507
-1.0842e-18
0.0084507
-1.30104e-18
0.0084507
-1.81604e-18
0.0084507
2.11419e-18
0.0084507
3.4315e-17
0.0084507
1.90603e-16
0.0084507
-7.65149e-16
0.0084507
1.73008e-14
0.0084507
8.1441e-14
0.0084507
8.11693e-13
0.0084507
1.045e-11
0.0084507
-1.57097e-11
0.0084507
5.0736e-10
0.0084507
3.52363e-09
0.0084506
3.71801e-08
0.00845088
2.16989e-07
0.00844777
1.06675e-06
0.00841742
-3.51254e-07
0.00823425
9.104e-05
0.00782297
0.000760223
0.00959969
0.00352783
0.0135595
0.00834259
0.0107882
0.01473
0.0084507
-1.6263e-19
0.0084507
-3.52366e-19
0.0084507
-8.67362e-19
0.0084507
-1.6263e-18
0.0084507
-2.19551e-18
0.0084507
1.35525e-18
0.0084507
7.69784e-18
0.0084507
5.11743e-17
0.0084507
3.84946e-16
0.0084507
4.61599e-15
0.0084507
3.46598e-14
0.0084507
3.53478e-13
0.0084507
1.39072e-12
0.0084507
2.44583e-11
0.0084507
1.05067e-10
0.0084507
1.35201e-09
0.0084507
1.05127e-08
0.00845056
8.09449e-08
0.00844983
2.16631e-07
0.00844114
-8.40604e-06
0.00840895
2.73383e-05
0.00827547
0.000102068
0.00858692
0.00177569
0.0110183
0.00570372
0.00984128
0.014344
0.0084507
-5.14996e-19
0.0084507
5.42101e-20
0.0084507
-2.98156e-19
0.0084507
-3.52366e-19
0.0084507
-8.13152e-20
0.0084507
5.14996e-19
0.0084507
3.60497e-18
0.0084507
3.80555e-17
0.0084507
7.21808e-17
0.0084507
6.6898e-16
0.0084507
1.31276e-14
0.0084507
3.06534e-14
0.0084507
8.90287e-13
0.0084507
1.7238e-12
0.0084507
8.77596e-12
0.0084507
3.69732e-10
0.0084507
6.81112e-10
0.00845075
1.38858e-08
0.00845089
1.53554e-07
0.00844258
6.18251e-07
0.00841873
5.07719e-06
0.00831091
7.6128e-05
0.00792119
0.000760966
0.00949702
0.00295481
0.00736328
0.0130943
0.0084507
5.96311e-19
0.0084507
1.0571e-18
0.0084507
1.30104e-18
0.0084507
1.38236e-18
0.0084507
1.19262e-18
0.0084507
-1.49078e-18
0.0084507
-8.13152e-20
0.0084507
1.16281e-17
0.0084507
3.58058e-17
0.0084507
-1.40133e-17
0.0084507
7.03832e-15
0.0084507
-3.35406e-14
0.0084507
5.62022e-13
0.0084507
-3.28923e-12
0.0084507
1.98628e-11
0.0084507
6.73229e-11
0.0084507
9.19549e-10
0.00845069
4.3215e-09
0.00845056
7.09652e-08
0.00844969
6.01215e-08
0.0084431
-1.48854e-06
0.00842639
1.38692e-05
0.00834827
0.000184551
0.00889821
0.000786801
0.00473619
0.0110533
0.0084507
4.60786e-19
0.0084507
7.58942e-19
0.0084507
1.78893e-18
0.0084507
1.81604e-18
0.0084507
2.00577e-18
0.0084507
-2.43945e-19
0.0084507
9.21572e-19
0.0084507
1.51788e-18
0.0084507
-1.92988e-17
0.0084507
3.11193e-16
0.0084507
1.8245e-15
0.0084507
1.77666e-14
0.0084507
1.26798e-13
0.0084507
1.11617e-14
0.0084507
4.56056e-12
0.0084507
4.20138e-11
0.0084507
2.41105e-10
0.0084507
2.4361e-09
0.00845073
1.59556e-08
0.00845032
1.2328e-07
0.00844711
9.52483e-07
0.00843597
1.12312e-07
0.00839507
7.24012e-05
0.00832222
-0.000118874
0.00235191
0.0093756
0.0084507
3.52366e-19
0.0084507
-8.13152e-20
0.0084507
-2.98156e-19
0.0084507
-2.1684e-19
0.0084507
-1.02999e-18
0.0084507
-1.0571e-18
0.0084507
-1.0842e-18
0.0084507
-6.50521e-19
0.0084507
-9.94755e-18
0.0084507
1.03026e-16
0.0084507
3.75649e-16
0.0084507
6.93751e-15
0.0084507
4.42465e-14
0.0084507
1.72103e-13
0.0084507
-5.08634e-15
0.0084507
1.76206e-11
0.0084507
2.21148e-11
0.0084507
9.03339e-10
0.00845071
2.25446e-09
0.00845056
3.77712e-08
0.00845054
1.86949e-07
0.00843558
2.2199e-06
0.00850703
1.6829e-05
0.00825666
8.65953e-05
0.00089582
0.00784985
0.0084507
-5.42101e-20
0.0084507
-5.14996e-19
0.0084507
4.33681e-19
0.0084507
1.27394e-18
0.0084507
1.84314e-18
0.0084507
2.08709e-18
0.0084507
2.24972e-18
0.0084507
4.06576e-18
0.0084507
1.04354e-17
0.0084507
2.01662e-17
0.0084507
1.36772e-16
0.0084507
1.21778e-15
0.0084507
9.39743e-15
0.0084507
7.38308e-14
0.0084507
-4.50982e-13
0.0084507
5.70119e-12
0.0084507
-7.13654e-12
0.0084507
2.83215e-10
0.0084507
8.95633e-10
0.00845068
1.1786e-08
0.00845055
7.24319e-08
0.0084504
4.49696e-07
0.00844247
8.39699e-06
0.00842761
1.22838e-05
0.000208198
0.00837048
0.0084507
-2.1684e-19
0.0084507
-3.79471e-19
0.0084507
5.14996e-19
0.0084507
1.65341e-18
0.0084507
2.92735e-18
0.0084507
3.36103e-18
0.0084507
3.03577e-18
0.0084507
5.3397e-18
0.0084507
9.08019e-18
0.0084507
1.17094e-17
0.0084507
3.21737e-17
0.0084507
4.11563e-16
0.0084507
2.69218e-15
0.0084507
1.32771e-14
0.0084507
1.34412e-13
0.0084507
7.17136e-13
0.0084507
6.2248e-12
0.0084507
6.43448e-11
0.0084507
3.17807e-10
0.0084507
3.41007e-09
0.00845065
2.24897e-08
0.00845051
4.60179e-08
0.00845109
3.58892e-06
0.00844331
-7.65896e-07
8.1461e-05
0.00839812
0.0084507
8.13152e-20
0.0084507
4.33681e-19
0.0084507
9.21572e-19
0.0084507
1.11131e-18
0.0084507
2.1684e-19
0.0084507
1.32815e-18
0.0084507
2.33103e-18
0.0084507
3.00866e-18
0.0084507
2.08709e-18
0.0084507
3.25261e-18
0.0084507
-4.77049e-18
0.0084507
1.0636e-16
0.0084507
7.36824e-16
0.0084507
4.40129e-15
0.0084507
4.57439e-14
0.0084507
3.40773e-13
0.0084507
3.04136e-12
0.0084507
1.64399e-11
0.0084507
9.95745e-11
0.0084507
1.28127e-09
0.00845065
8.72876e-09
0.0084507
4.71216e-08
0.00845206
6.96916e-07
0.00844702
-2.32644e-07
1.82409e-05
0.00851334
0.0084507
4.60786e-19
0.0084507
9.75782e-19
0.0084507
8.13152e-19
0.0084507
2.71051e-19
0.0084507
-3.79471e-19
0.0084507
2.71051e-20
0.0084507
7.86047e-19
0.0084507
-1.0842e-18
0.0084507
-2.41235e-18
0.0084507
-3.38813e-18
0.0084507
-1.09775e-17
0.0084507
1.79707e-17
0.0084507
2.78233e-16
0.0084507
1.09033e-15
0.0084507
1.8467e-14
0.0084507
1.1366e-13
0.0084507
1.39734e-12
0.0084507
8.85744e-13
0.0084507
3.5892e-11
0.0084507
3.01444e-10
0.0084507
3.36584e-09
0.00845072
1.65588e-08
0.00845066
2.69459e-07
0.00845076
8.98187e-07
3.95996e-06
0.00844562
0.0084507
-4.87891e-19
0.0084507
-9.48677e-19
0.0084507
-1.11131e-18
0.0084507
-2.41235e-18
0.0084507
-2.57498e-18
0.0084507
-2.6563e-18
0.0084507
-2.90024e-18
0.0084507
-2.35814e-18
0.0084507
-2.62919e-18
0.0084507
-3.11708e-18
0.0084507
-6.26127e-18
0.0084507
1.50704e-17
0.0084507
5.59177e-17
0.0084507
-9.00701e-17
0.0084507
5.10529e-15
0.0084507
2.6565e-14
0.0084507
2.96169e-13
0.0084507
1.49169e-12
0.0084507
1.62252e-11
0.0084507
9.16502e-11
0.0084507
7.77247e-10
0.00845072
4.26121e-09
0.0084508
4.41202e-08
0.00845104
1.84617e-07
2.16157e-08
0.00845115
0.0084507
4.06576e-19
0.0084507
2.43945e-19
0.0084507
-4.87891e-19
0.0084507
-1.02999e-18
0.0084507
-1.87025e-18
0.0084507
-2.22261e-18
0.0084507
-2.84603e-18
0.0084507
-3.52366e-18
0.0084507
-4.2826e-18
0.0084507
-3.06287e-18
0.0084507
-1.49078e-18
0.0084507
3.65918e-18
0.0084507
1.02999e-17
0.0084507
8.2047e-17
0.0084507
1.2715e-15
0.0084507
5.05729e-15
0.0084507
8.44938e-14
0.0084507
4.17958e-13
0.0084507
5.48352e-12
0.0084507
1.9678e-11
0.0084507
2.35606e-10
0.0084507
1.33147e-09
0.00845072
7.87637e-09
0.00845049
6.09393e-08
2.16613e-07
0.00845002
0.0084507
-2.71051e-19
0.0084507
-1.35525e-19
0.0084507
-8.94467e-19
0.0084507
-8.13152e-19
0.0084507
-9.75782e-19
0.0084507
-1.70762e-18
0.0084507
-2.76472e-18
0.0084507
-4.71628e-18
0.0084507
-5.63785e-18
0.0084507
-3.7405e-18
0.0084507
-1.43657e-18
0.0084507
2.79182e-18
0.0084507
6.64074e-18
0.0084507
3.73508e-17
0.0084507
4.58211e-16
0.0084507
2.59284e-15
0.0084507
3.38373e-14
0.0084507
4.87137e-14
0.0084507
1.16656e-12
0.0084507
4.5961e-12
0.0084507
5.62742e-11
0.0084507
1.46383e-10
0.0084507
-1.13874e-09
0.00845067
1.50133e-08
3.24916e-08
0.0084503
0.0084507
-5.69206e-19
0.0084507
-1.02999e-18
0.0084507
-9.75782e-19
0.0084507
-1.21973e-18
0.0084507
-1.32815e-18
0.0084507
-1.27394e-18
0.0084507
-2.43945e-19
0.0084507
4.60786e-19
0.0084507
8.94467e-19
0.0084507
6.77626e-19
0.0084507
3.52366e-19
0.0084507
1.87025e-18
0.0084507
3.65918e-18
0.0084507
7.04731e-18
0.0084507
1.9353e-16
0.0084507
3.49086e-16
0.0084507
1.18732e-14
0.0084507
-1.14014e-14
0.0084507
6.24174e-14
0.0084507
6.01654e-13
0.0084507
2.06933e-11
0.0084507
-6.06518e-11
0.0084507
7.34669e-10
0.00845065
1.03124e-10
1.82454e-08
0.00845026
0.0084507
0
0.0084507
-2.98156e-19
0.0084507
-3.25261e-19
0.0084507
-3.25261e-19
0.0084507
-4.60786e-19
0.0084507
-1.35525e-19
0.0084507
-1.89735e-19
0.0084507
1.16552e-18
0.0084507
1.76183e-18
0.0084507
-2.98156e-19
0.0084507
-1.65341e-18
0.0084507
-2.33103e-18
0.0084507
-3.79471e-19
0.0084507
-1.22786e-17
0.0084507
4.5916e-17
0.0084507
-8.14561e-16
0.0084507
-4.36646e-15
0.0084507
5.01995e-14
0.0084507
-2.25217e-13
0.0084507
1.05374e-12
0.0084507
-9.7224e-12
0.0084507
-6.40429e-11
0.0084507
2.37861e-10
0.00845066
-2.2443e-09
1.06094e-08
0.00845028
0.0084507
2.98156e-19
0.0084507
3.25261e-19
0.0084507
1.89735e-19
0.0084507
2.71051e-20
0.0084507
4.87891e-19
0.0084507
7.22224e-35
0.0084507
-9.48677e-19
0.0084507
-2.24972e-18
0.0084507
-3.49655e-18
0.0084507
-4.58075e-18
0.0084507
-4.55365e-18
0.0084507
-6.47811e-18
0.0084507
-5.17707e-18
0.0084507
-1.1086e-17
0.0084507
-1.53686e-17
0.0084507
-3.80962e-16
0.0084507
-3.0282e-15
0.0084507
2.94284e-14
0.0084507
-4.5308e-13
0.0084507
7.66773e-13
0.0084507
-2.28596e-11
0.0084507
-6.60562e-11
0.0084507
1.24265e-10
0.00845066
-1.63715e-09
3.97711e-09
0.00845031
0.0084507
1.89735e-19
0.0084507
5.69206e-19
0.0084507
5.42101e-19
0.0084507
2.71051e-20
0.0084507
5.69206e-19
0.0084507
-4.33681e-19
0.0084507
-1.68051e-18
0.0084507
-2.62919e-18
0.0084507
-4.17418e-18
0.0084507
-4.87891e-18
0.0084507
-4.98733e-18
0.0084507
-5.44812e-18
0.0084507
-6.88468e-18
0.0084507
-7.29126e-18
0.0084507
-8.86335e-18
0.0084507
-3.31766e-17
0.0084507
-3.33961e-16
0.0084507
5.99987e-15
0.0084507
-9.28929e-14
0.0084507
1.39296e-14
0.0084507
-3.41607e-12
0.0084507
-1.62577e-11
0.0084507
1.76724e-12
0.00845066
1.17643e-10
1.21863e-09
0.00845029
0.0084507
7.52316e-36
0.0084507
1.0842e-19
0.0084507
1.89735e-19
0.0084507
-4.33681e-19
0.0084507
-9.75782e-19
0.0084507
-2.49366e-18
0.0084507
-2.95445e-18
0.0084507
-2.92735e-18
0.0084507
-2.76472e-18
0.0084507
-2.92735e-18
0.0084507
-2.95445e-18
0.0084507
-2.73761e-18
0.0084507
-2.43945e-18
0.0084507
-2.22261e-18
0.0084507
-1.8838e-17
0.0084507
-3.42879e-17
0.0084507
-1.73283e-16
0.0084507
-6.19784e-16
0.0084507
-4.26595e-14
0.0084507
1.14766e-14
0.0084507
-4.27094e-12
0.0084507
-7.42643e-12
0.0084507
2.44062e-11
0.00845066
-2.04495e-10
6.85734e-10
0.0084503
0.0084507
-3.52366e-19
0.0084507
-8.67362e-19
0.0084507
-1.5992e-18
0.0084507
-1.30104e-18
0.0084507
-3.00866e-18
0.0084507
-5.25838e-18
0.0084507
-7.20994e-18
0.0084507
-8.45678e-18
0.0084507
-7.86047e-18
0.0084507
-6.31548e-18
0.0084507
-4.20128e-18
0.0084507
-1.16552e-18
0.0084507
1.5992e-18
0.0084507
1.21973e-18
0.0084507
-9.32414e-18
0.0084507
4.60786e-19
0.0084507
1.44199e-17
0.0084507
-1.12009e-15
0.0084507
-4.25934e-15
0.0084507
-2.87419e-15
0.0084507
4.59702e-14
0.0084507
-7.06502e-13
0.0084507
-3.76166e-13
0.00845066
4.52847e-11
3.96963e-10
0.00845029
0.0084507
0.0084507
0.0084507
0.0084507
0.0084507
0.0084507
0.0084507
0.0084507
0.0084507
0.0084507
0.0084507
0.0084507
0.0084507
0.0084507
0.0084507
0.0084507
0.0084507
0.0084507
0.0084507
0.0084507
0.0084507
0.0084507
0.0084507
0.00845066
0.0084503
0.0019443
0.0049784
-0.00162262
0.00339937
-0.00313972
0.00138462
-0.00353735
0.000231002
-0.00330924
-0.000259787
-0.00338984
4.33891e-05
-0.00382205
0.000324321
-0.00395745
6.20582e-05
-0.00383573
-0.000185429
-0.00360049
-0.000232378
-0.00356055
1.13461e-05
-0.00379059
0.000205417
-0.00393274
0.000136247
-0.00405666
0.000127873
-0.0041633
0.000116663
-0.0042406
9.30225e-05
-0.00429274
6.78123e-05
-0.00431461
3.39967e-05
-0.00427793
2.19403e-05
-0.00429523
4.15418e-05
-0.00435797
4.52381e-05
-0.00442758
6.07725e-05
-0.00448249
6.84223e-05
-0.00454992
7.21299e-05
-0.00459728
5.13354e-05
-0.00467319
7.01473e-05
-0.00473321
6.1083e-05
-0.00480085
6.08161e-05
-0.00483742
4.73225e-05
-0.00482904
6.95649e-06
-0.00471419
-8.17058e-05
-0.00449841
-0.000130933
-0.00421803
-0.0001801
-0.00381567
-0.00028414
-0.0032202
-0.00042359
-0.00249247
-0.000566339
-0.00169851
-0.000623796
-0.000836971
-0.00071653
5.55757e-05
-0.000775013
0.00088399
-0.000710152
0.00165303
-0.000677591
0.00239651
-0.000653684
0.00309052
-0.000629612
0.00371062
-0.000575768
0.00425934
-0.000516101
0.00475569
-0.000465133
0.00519099
-0.000408609
0.00553712
-0.000346114
0.00580825
-0.000290368
0.00601863
-0.000240923
0.00617184
-0.000194857
0.0062718
-0.000151884
0.00633829
-0.000115898
0.00638037
-8.77636e-05
0.0064096
-6.7756e-05
0.0064367
-5.44845e-05
0.00646409
-4.45363e-05
0.00649307
-3.81256e-05
0.00652266
-3.336e-05
0.00655149
-2.91545e-05
0.00658205
-2.81076e-05
0.00661398
-2.83498e-05
0.00664855
-3.00359e-05
0.00668814
-3.19243e-05
0.00673539
-3.72463e-05
0.00678844
-4.4532e-05
0.00684728
-5.08309e-05
0.00691263
-5.76801e-05
0.00698517
-6.452e-05
0.00706598
-7.14155e-05
0.00715699
-7.90994e-05
0.00725934
-8.69812e-05
0.00737402
-9.53417e-05
0.00750123
-0.000103711
0.0076423
-0.000111651
0.00779919
-0.000119281
0.00797425