/*--------------------------------*- C++ -*----------------------------------*\
| =========                 |                                                 |
| \\      /  F ield         | OpenFOAM: The Open Source CFD Toolbox           |
|  \\    /   O peration     | Version:  v2106                                 |
|   \\  /    A nd           | Website:  www.openfoam.com                      |
|    \\/     M anipulation  |                                                 |
\*---------------------------------------------------------------------------*/
FoamFile
{
    version     2.0;
    format      ascii;
    arch        "LSB;label=32;scalar=64";
    class       volScalarField;
    location    "2";
    object      T;
}
// * * * * * * * * * * * * * * * * * * * * * * * * * * * * * * * * * * * * * //

dimensions      [0 0 0 1 0 0 0];

internalField   nonuniform List<scalar> 
5250
(
1
1
1
1
1
1
1
1
1.00002
1.00022
1.002
1.01854
1.139
1.58715
2.89206
2.5409
2.50806
2.54107
2.55184
2.55583
2.5546
2.54677
2.52638
2.49288
2.44468
1
1
1
1
1
1
1
1
1.00002
1.00022
1.00196
1.01812
1.13641
1.57987
2.8804
2.53346
2.5064
2.53513
2.55219
2.55358
2.55228
2.54428
2.52377
2.49018
2.44121
1
1
1
1
1
1
1
1
1.00002
1.00021
1.00186
1.01724
1.13097
1.5644
2.8553
2.5167
2.50552
2.5256
2.54977
2.54866
2.54635
2.53731
2.5166
2.48208
2.43158
1
1
1
1
1
1
1
1
1.00002
1.00019
1.00172
1.01599
1.12305
1.54153
2.81735
2.49382
2.49846
2.50995
2.54523
2.544
2.54066
2.53046
2.50882
2.47297
2.42082
1
1
1
1
1
1
1
1
1.00002
1.00017
1.00154
1.01434
1.1122
1.5087
2.77063
2.53294
2.46867
2.4778
2.52764
2.52961
2.53001
2.522
2.49963
2.4623
2.40719
1
1
1
1
1
1
1
1
1.00002
1.00015
1.00135
1.0125
1.09962
1.46618
2.70747
2.60137
2.43679
2.43896
2.49139
2.50766
2.51583
2.50923
2.48828
2.44799
2.38832
1
1
1
1
1
1
1
1
1.00002
1.00014
1.0012
1.01069
1.08297
1.41388
2.60939
2.6443
2.426
2.40735
2.45164
2.47927
2.49456
2.4913
2.47189
2.43117
2.36463
1
1
1
1
1
1
1
1
1.00001
1.0001
1.00092
1.00797
1.0643
1.35125
2.29067
2.69486
2.36662
2.36733
2.4154
2.44317
2.47197
2.47079
2.45468
2.40616
2.3247
1
1
1
1
1
1
1
1
1.00001
1.00007
1.00065
1.00558
1.04723
1.28094
1.94913
2.7931
2.26368
2.28211
2.34963
2.40438
2.43912
2.44195
2.42326
2.38179
2.26658
1
1
1
1
1
1
1
1
1.00001
1.00005
1.00041
1.00364
1.0339
1.22155
1.81705
2.97922
2.32272
2.26171
2.29148
2.34684
2.39473
2.4118
2.38813
2.34403
2.13041
1
1
1
1
1
1
1
1
1
1.00003
1.00031
1.00265
1.02521
1.17727
1.69358
3.0381
2.39032
2.28429
2.28206
2.2957
2.33863
2.36576
2.32307
2.22062
1.89957
1
1
1
1
1
1
1
1
1
1.00002
1.00021
1.00193
1.01808
1.13408
1.57175
2.95671
2.41748
2.35482
2.29892
2.276
2.28679
2.306
2.27761
2.21086
1.83937
1
1
1
1
1
1
1
1
1
1.00002
1.00015
1.0013
1.012
1.09542
1.45765
2.76758
2.53287
2.32951
2.2925
2.24677
2.22804
2.25059
2.22715
2.18079
1.85561
1
1
1
1
1
1
1
1
1
1.00001
1.0001
1.00085
1.00718
1.06005
1.34391
2.41978
2.63428
2.30601
2.26438
2.24662
2.2191
2.20469
2.17649
2.13247
1.89618
1
1
1
1
1
1
1
1
1
1.00001
1.00005
1.00044
1.00391
1.03505
1.22875
1.86141
2.85755
2.30193
2.24921
2.23884
2.21275
2.18173
2.14622
2.09624
1.94641
1
1
1
1
1
1
1
1
1
1
1.00003
1.00029
1.00251
1.02287
1.1623
1.6446
2.8978
2.29221
2.26164
2.22218
2.19923
2.16222
2.11705
2.05819
1.95195
1
1
1
1
1
1
1
1
1
1
1.00002
1.00016
1.00143
1.01309
1.1022
1.48139
2.7993
2.40042
2.22424
2.17887
2.16775
2.1415
2.10063
2.04229
1.95192
1
1
1
1
1
1
1
1
1
1
1.00001
1.0001
1.00083
1.00691
1.05709
1.33345
2.53217
2.5702
2.23031
2.13845
2.14199
2.12997
2.09432
2.03716
1.95394
1
1
1
1
1
1
1
1
1
1
1
1.00004
1.00038
1.00329
1.02959
1.20158
1.8071
2.81003
2.24083
2.18832
2.1226
2.10658
2.07695
2.02759
1.95507
1
1
1
1
1
1
1
1
1
1
1
1.00003
1.00023
1.00192
1.01638
1.1178
1.52975
2.75291
2.34039
2.18293
2.09624
2.07415
2.0495
2.01168
1.95182
1
1
1
1
1
1
1
1
1
1
1
1.00001
1.00008
1.00077
1.00672
1.05738
1.34934
2.52926
2.50913
2.18108
2.06463
2.04757
2.02692
1.99583
1.94662
1
1
1
1
1
1
1
1
1
1
1
1.00001
1.00005
1.00041
1.00338
1.02761
1.17903
1.78558
2.74549
2.21336
2.12073
2.03262
2.00686
1.97871
1.93721
1
1
1
1
1
1
1
1
1
1
1
1
1.00002
1.00013
1.00128
1.0107
1.0872
1.49261
2.62388
2.37775
2.11149
2.01636
1.98564
1.95472
1.91973
1
1
1
1
1
1
1
1
1
1
1
1
1.00001
1.00008
1.00062
1.00499
1.03947
1.23803
2.08091
2.62247
2.12811
2.07133
1.99869
1.94573
1.90316
1
1
1
1
1
1
1
1
1
1
1
1
1.00001
1.00006
1.00013
1.00155
1.01276
1.10134
1.59327
2.61513
2.26069
2.06615
1.99297
1.94521
1.89512
1
1
1
1
1
1
1
1
1
1
1
1
1
1.00001
1.0001
1.0008
1.00627
1.0489
1.28604
2.36037
2.47334
2.08216
2.02336
1.95145
1.89246
1
1
1
1
1
1
1
1
1
1
1
1
1
1.00001
1.00009
1.00012
1.00158
1.01346
1.10852
1.69156
2.65066
2.22569
2.05199
1.95363
1.8976
1
1
1
1
1
1
1
1
1
1
1
1
1
1
1.00002
1.00011
1.00089
1.00674
1.05235
1.30537
2.43183
2.42862
2.07013
1.99725
1.91357
1
1
1
1
1
1
1
1
1
1
1
1
1
1
1.00001
1.00008
1.00006
1.00157
1.01381
1.10669
1.69294
2.62608
2.22474
2.02916
1.92558
1
1
1
1
1
1
1
1
1
1
1
1
1
1
1
1.00001
1.00011
1.00085
1.00634
1.04907
1.29365
2.35041
2.42637
2.04869
1.98191
1
1
1
1
1
1
1
1
1
1
1
1
1
1
1
1.00001
1.00006
1
1.00139
1.0131
1.09799
1.61695
2.53403
2.22043
1.98246
1
1
1
1
1
1
1
1
1
1
1
1
1
1
1
1
1.00001
1.00009
1.0007
1.0053
1.04172
1.25868
2.11696
2.4569
2.05244
1
1
1
1
1
1
1
1
1
1
1
1
1
1
1
1
1
1.00002
0.999893
1.00087
1.0104
1.08506
1.5031
2.42409
2.24444
1
1
1
1
1
1
1
1
1
1
1
1
1
1
1
1
1
1.00001
1.00007
1.00058
1.00428
1.03295
1.21858
1.91615
2.46879
1
1
1
1
1
1
1
1
1
1
1
1
1
1
1
1
1
1
1.00001
1.00009
1.0008
1.00773
1.06213
1.33458
2.26969
1
1
1
1
1
1
1
1
1
1
1
1
1
1
1
1
1
1
1.00001
1.00006
1.00049
1.00538
1.00529
1.06726
1.61903
1
1
1
1
1
1
1
1
1
1
1
1
1
1
1
1
1
1
1
1.00001
1.0001
1.00076
1.00503
1.03849
1.25695
1
1
1
1
1
1
1
1
1
1
1
1
1
1
1
1
1
1
1
1
1.00003
1.00021
1.00134
1.00772
1.06382
1
1
1
1
1
1
1
1
1
1
1
1
1
1
1
1
1
1
1
1
1.00001
1.00011
1.00075
1.00362
1.00002
1
1
1
1
1
1
1
1
1
1
1
1
1
1
1
1
1
1
1
1
1
1.00002
1.0001
1.00066
1.00476
1
1
1
1
1
1
1
1
1
1
1
1
1
1
1
1
1
1
1
1
1
1.00001
1.00004
1.00019
1.00101
1
1
1
1
1
1
1
1
1
1
1
1
1
1
1
1
1
1
1
1
1
1
1.00001
1.00005
1.00049
1
1
1
1
1
1
1
1
1
1
1
1
1
1
1
1
1
1
1
1
1
1
1
1.00002
1.00019
1
1
1
1
1
1
1
1
1
1
1
1
1
1
1
1
1
1
1
1
1
1
1
1.00002
1.00016
1
1
1
1
1
1
1
1
1
1
1
1
1
1
1
1
1
1
1
1
1
1
1
1.00002
1.00015
1
1
1
1
1
1
1
1
1
1
1
1
1
1
1
1
1
1
1
1
1
1
1
1.00002
1.00014
1
1
1
1
1
1
1
1
1
1
1
1
1
1
1
1
1
1
1
1
1
1
1
1.00002
1.00014
1
1
1
1
1
1
1
1
1
1
1
1
1
1
1
1
1
1
1
1
1
1
1
1.00002
1.00014
1
1
1
1
1
1
1
1
1
1
1
1
1
1
1
1
1
1
1
1
1
1
1
1.00002
1.00014
1
1
1
1
1
1
1
1
1
1
1
1
1
1
1
1
1
1
1
1
1
1
1
1.00002
1.00014
2.12843
2.31682
2.14011
2.0736
2.04305
2.06908
1.99175
1.93931
1.91961
1.91359
1.91535
1.89942
1.86305
1.8371
1.81324
1.79664
1.78544
1.77805
1.77355
1.77852
1.74499
1.71472
1.6951
1.68705
1.68178
1.67962
1.67835
1.69025
1.70124
1.7379
1.77233
1.81846
1.87246
1.92207
1.97061
2.02802
2.07042
2.10385
2.12329
2.12242
2.1142
2.0992
2.08958
2.08325
2.07724
2.06824
2.05519
2.04617
2.04336
2.0431
2.04399
2.04636
2.04883
2.04936
2.04828
2.04479
2.03867
2.03036
2.02055
2.00991
1.99875
1.98735
1.97573
1.96369
1.95124
1.93877
1.92656
1.91445
1.90234
1.89026
1.87815
1.86617
1.85434
1.84285
1.83169
1.82091
1.80975
1.79876
1.78886
1.77947
1.77065
1.7623
1.75432
1.74745
1.74073
1.73486
1.7289
1.72434
1.71955
1.71612
1.71238
1.70995
1.70726
1.70587
1.7042
1.7036
1.70287
1.70169
1.70208
1.7028
2.14754
2.32129
2.28805
2.40905
2.34505
2.22421
2.24811
2.19761
2.16656
2.1167
2.07716
2.07795
2.08372
2.09124
2.09202
2.08423
2.08341
2.0897
2.09483
2.10915
2.09027
2.05566
2.03831
2.03384
2.03488
2.04216
2.05023
2.06922
2.0876
2.13747
2.17744
2.22582
2.26887
2.30327
2.33268
2.36909
2.3635
2.33759
2.29195
2.25448
2.21899
2.1784
2.13994
2.11411
2.09288
2.07082
2.04541
2.01764
1.98969
1.9624
1.93861
1.9204
1.90683
1.89589
1.88741
1.88065
1.87538
1.87075
1.86631
1.86205
1.85777
1.85333
1.84864
1.84366
1.83823
1.83212
1.8263
1.8209
1.81536
1.8097
1.80396
1.79818
1.7925
1.78702
1.7817
1.77663
1.77123
1.76532
1.75916
1.75291
1.74648
1.73978
1.73275
1.72537
1.71771
1.71022
1.70259
1.69614
1.68927
1.68422
1.67877
1.6756
1.6726
1.67134
1.67072
1.67082
1.67099
1.67114
1.67241
1.67543
1.96613
2.10264
2.23179
2.39122
2.41064
2.35113
2.39222
2.38258
2.41065
2.36373
2.41706
2.47462
2.5226
2.55354
2.57314
2.58232
2.58807
2.5815
2.54791
2.53247
2.51589
2.48214
2.46768
2.44943
2.44088
2.43881
2.4436
2.44633
2.44217
2.48841
2.51302
2.55047
2.58303
2.61036
2.62518
2.62651
2.56336
2.48044
2.38805
2.32374
2.27332
2.2225
2.17035
2.13574
2.11367
2.09539
2.07503
2.05393
2.03293
2.01027
1.98433
1.9545
1.92122
1.89236
1.868
1.84846
1.83325
1.82039
1.80974
1.80149
1.79387
1.78745
1.78284
1.77897
1.77519
1.77183
1.76886
1.76665
1.76478
1.76273
1.76046
1.75803
1.75557
1.75319
1.75086
1.74872
1.74619
1.74296
1.73924
1.73526
1.73101
1.7264
1.7213
1.71569
1.70968
1.70321
1.69632
1.68943
1.6821
1.67604
1.66957
1.66505
1.66044
1.65759
1.65543
1.6547
1.65428
1.65366
1.65438
1.65637
1.78653
1.83865
1.97206
2.19587
2.33189
2.33077
2.36381
2.41014
2.41052
2.39411
2.38655
2.41492
2.42309
2.43914
2.45231
2.46524
2.50394
2.56227
2.60857
2.70348
2.74937
2.73364
2.71539
2.63028
2.57501
2.53319
2.52518
2.5275
2.53811
2.57984
2.69527
2.72768
2.70994
2.70129
2.69289
2.65587
2.58617
2.4978
2.39763
2.32668
2.26682
2.21409
2.15939
2.1187
2.09302
2.07393
2.05482
2.04015
2.02948
2.01753
2.00286
1.98498
1.96375
1.9389
1.91006
1.88033
1.8549
1.83563
1.8198
1.80659
1.79722
1.79122
1.7867
1.78305
1.78105
1.78085
1.78104
1.78125
1.78217
1.78379
1.78536
1.78658
1.78732
1.7875
1.78734
1.7871
1.78641
1.78486
1.78264
1.78006
1.77712
1.77376
1.76986
1.76539
1.76029
1.75435
1.74764
1.74021
1.73195
1.72306
1.71321
1.70359
1.69394
1.68509
1.67731
1.6709
1.66709
1.66306
1.66234
1.66177
1.77726
1.75596
1.78929
1.91863
2.08298
2.20611
2.24381
2.31415
2.36572
2.39084
2.38111
2.35864
2.35036
2.36135
2.36584
2.37385
2.37521
2.38826
2.41547
2.46198
2.50365
2.56688
2.58025
2.61481
2.61609
2.58355
2.51646
2.50274
2.53968
2.58776
2.58462
2.55707
2.50829
2.45888
2.4506
2.43435
2.37918
2.31742
2.25879
2.20786
2.15652
2.12858
2.10019
2.0812
2.06371
2.04169
2.02214
2.00962
2.00329
1.99607
1.98747
1.97881
1.96926
1.95691
1.94127
1.92118
1.89759
1.87602
1.8582
1.84312
1.83186
1.82376
1.81769
1.81413
1.81319
1.81341
1.81441
1.81536
1.81638
1.81821
1.82006
1.82074
1.82082
1.8205
1.81963
1.81852
1.81711
1.8151
1.81278
1.81055
1.80834
1.80599
1.80344
1.80065
1.79748
1.79362
1.78901
1.78361
1.77714
1.76959
1.7607
1.7508
1.73978
1.72785
1.71538
1.7029
1.69375
1.68421
1.67977
1.67466
1.80158
1.73956
1.72743
1.75619
1.83985
1.95554
2.05124
2.13766
2.2269
2.28042
2.31331
2.29564
2.27571
2.2945
2.30708
2.32455
2.32518
2.32891
2.33206
2.31915
2.30999
2.33519
2.33735
2.38605
2.38572
2.38206
2.40263
2.41345
2.42373
2.41422
2.3788
2.33866
2.33028
2.31346
2.2983
2.26251
2.21962
2.18418
2.15339
2.12011
2.09148
2.07556
2.05761
2.04562
2.0301
2.01154
2.00076
1.99636
1.99139
1.98374
1.97433
1.9681
1.96276
1.95576
1.94655
1.93621
1.92198
1.90495
1.88981
1.87842
1.87033
1.8648
1.86078
1.85817
1.8568
1.85621
1.85609
1.85572
1.85431
1.85326
1.85249
1.85126
1.84936
1.84685
1.84376
1.84055
1.83725
1.83365
1.83026
1.82741
1.8248
1.82221
1.81976
1.81728
1.81476
1.81181
1.80834
1.80427
1.79928
1.79318
1.78563
1.77682
1.76652
1.75483
1.74188
1.72758
1.7148
1.70161
1.69434
1.68539
1.83873
1.74723
1.70911
1.69313
1.71359
1.75928
1.82023
1.8912
1.97598
2.06217
2.13146
2.1649
2.17541
2.2031
2.22374
2.2478
2.25222
2.26214
2.25924
2.24585
2.2372
2.2581
2.25377
2.26694
2.28475
2.30287
2.35609
2.35111
2.32243
2.24853
2.12421
2.05361
2.05463
2.07052
2.11371
2.13495
2.10336
2.08092
2.06848
2.05477
2.04301
2.03087
2.02309
2.01496
2.00226
1.99595
1.99142
1.98712
1.98138
1.97156
1.96134
1.96113
1.96035
1.95616
1.94811
1.94089
1.93258
1.92096
1.90812
1.90059
1.89727
1.89562
1.89494
1.89456
1.89444
1.89431
1.89428
1.89409
1.89234
1.8889
1.88581
1.8829
1.87915
1.87438
1.86855
1.8624
1.85623
1.85058
1.84552
1.84108
1.83737
1.83406
1.83105
1.82805
1.82529
1.82227
1.81893
1.81523
1.81088
1.80557
1.79898
1.79109
1.78159
1.77056
1.75791
1.74395
1.72957
1.71414
1.70473
1.69287
1.85788
1.77461
1.70986
1.68979
1.68098
1.69049
1.70636
1.72932
1.76346
1.81376
1.87
1.93201
1.99487
2.02673
2.05895
2.09801
2.12066
2.15244
2.16233
2.16607
2.16586
2.17639
2.19349
2.21158
2.22199
2.32725
2.32356
2.26336
2.14663
1.98846
1.89366
1.83077
1.83309
1.86018
1.92351
2.059
2.05107
2.01817
2.00986
2.00859
2.00602
2.00289
2
1.99734
1.9863
1.98348
1.98239
1.97923
1.97341
1.96374
1.95971
1.95777
1.95506
1.95043
1.94351
1.93669
1.93418
1.92869
1.92039
1.91551
1.91526
1.91619
1.91846
1.92203
1.92598
1.92948
1.93216
1.93364
1.93374
1.93131
1.9273
1.9227
1.91709
1.90987
1.90097
1.89098
1.88055
1.87075
1.86228
1.85536
1.84969
1.84505
1.84097
1.8372
1.83403
1.83066
1.82708
1.8233
1.81907
1.81406
1.80797
1.80061
1.7917
1.78125
1.76906
1.75542
1.74047
1.72403
1.71314
1.69893
1.86598
1.80171
1.73026
1.69374
1.67972
1.66288
1.65894
1.66361
1.67757
1.69622
1.71961
1.74901
1.78583
1.8239
1.8489
1.88267
1.92469
1.95996
1.99431
2.01476
2.03678
2.05392
2.08516
2.1441
2.21153
2.30734
2.22688
2.10616
1.92521
1.79106
1.74972
1.70541
1.69878
1.71099
1.76095
1.8592
2.03814
2.0037
1.9742
1.97883
1.98276
1.98591
1.98542
1.98319
1.97649
1.97481
1.97259
1.96936
1.96453
1.96044
1.96005
1.95745
1.95222
1.94495
1.94154
1.93582
1.93189
1.93241
1.93059
1.92771
1.92737
1.92959
1.93465
1.94243
1.95192
1.96091
1.96729
1.97135
1.97322
1.97217
1.9679
1.96218
1.9556
1.94715
1.93654
1.92391
1.90959
1.8942
1.88105
1.8706
1.8622
1.85568
1.85017
1.84538
1.84167
1.8379
1.83405
1.83013
1.82591
1.82106
1.8153
1.80834
1.79993
1.78995
1.77818
1.7649
1.75006
1.73339
1.72114
1.70446
1.87717
1.81534
1.755
1.70624
1.68172
1.66783
1.64837
1.63726
1.64039
1.64621
1.65486
1.66295
1.67863
1.69695
1.70843
1.72188
1.7386
1.75651
1.78695
1.81013
1.84853
1.88209
1.93078
2.04001
2.2215
2.17002
2.06343
1.93101
1.77911
1.70927
1.65847
1.63262
1.62081
1.63237
1.66576
1.73775
1.86329
2.04419
1.98481
1.96628
1.96956
1.97271
1.97535
1.97058
1.97129
1.96932
1.96335
1.9601
1.95845
1.95681
1.95447
1.95136
1.94847
1.9431
1.94048
1.93725
1.93272
1.93073
1.93291
1.935
1.93664
1.93924
1.94466
1.954
1.96694
1.98177
1.99403
2.00172
2.00596
2.00675
2.00407
1.99826
1.9909
1.98207
1.97095
1.95735
1.94094
1.92173
1.90278
1.88746
1.87565
1.86655
1.85913
1.85318
1.84867
1.84439
1.84027
1.83614
1.83184
1.8271
1.82159
1.81505
1.80709
1.7976
1.78637
1.77351
1.75885
1.7421
1.72876
1.7103
1.8837
1.82735
1.7752
1.72568
1.6912
1.67586
1.65728
1.63385
1.62694
1.62965
1.63206
1.62834
1.63191
1.63636
1.64101
1.64466
1.64297
1.63938
1.65482
1.67565
1.70152
1.7383
1.80851
1.94454
2.11503
2.02639
1.92975
1.79898
1.74171
1.69137
1.64115
1.59587
1.59409
1.60508
1.63139
1.67548
1.76051
1.9234
2.03652
1.96431
1.96128
1.95889
1.96124
1.96276
1.96071
1.95794
1.95413
1.95088
1.94922
1.94699
1.944
1.93919
1.93786
1.93584
1.93252
1.93166
1.93227
1.93183
1.93167
1.93385
1.93873
1.94468
1.95216
1.96236
1.97604
1.99281
2.00917
2.02186
2.02965
2.0338
2.03361
2.02893
2.02093
2.01126
1.99996
1.98672
1.96963
1.94888
1.92591
1.90598
1.89007
1.87803
1.86838
1.86087
1.85521
1.85056
1.84603
1.84162
1.83725
1.83259
1.82736
1.82116
1.81361
1.80467
1.79394
1.78146
1.76701
1.7506
1.73637
1.71576
1.8822
1.83498
1.7882
1.74928
1.70928
1.68317
1.66715
1.6441
1.6276
1.62628
1.6265
1.62345
1.61597
1.61077
1.60864
1.6051
1.5969
1.59714
1.60122
1.61649
1.63838
1.69322
1.80809
2.03732
2.00824
1.94112
1.83615
1.76701
1.73354
1.69452
1.65925
1.61699
1.60873
1.61584
1.62815
1.65512
1.70363
1.79735
1.99374
2.00154
1.95206
1.94546
1.94462
1.94762
1.94649
1.94631
1.94331
1.93832
1.93173
1.92892
1.92892
1.92806
1.92518
1.92227
1.92048
1.9235
1.92823
1.93055
1.93114
1.93187
1.93569
1.94281
1.9516
1.96243
1.97592
1.99292
2.01275
2.03058
2.04197
2.04919
2.0522
2.05126
2.04548
2.03593
2.02385
2.00966
1.99359
1.97397
1.94996
1.92531
1.90599
1.89113
1.87887
1.86955
1.86221
1.85696
1.85188
1.84747
1.84291
1.83819
1.83302
1.82704
1.81985
1.81132
1.80082
1.78864
1.7747
1.75852
1.7431
1.72096
1.87472
1.83428
1.79088
1.75473
1.7281
1.69465
1.67294
1.65647
1.63435
1.6264
1.62508
1.6228
1.61638
1.60775
1.59943
1.58657
1.5831
1.58892
1.59637
1.60822
1.64431
1.73126
1.90868
2.01442
1.93493
1.90538
1.81987
1.77637
1.74638
1.71382
1.69269
1.6727
1.65255
1.63964
1.6513
1.65946
1.68169
1.72951
1.8252
2.00394
1.97522
1.93388
1.92874
1.93031
1.93351
1.92963
1.92826
1.92506
1.91823
1.91238
1.91231
1.91162
1.90855
1.90922
1.91314
1.91761
1.91848
1.91824
1.92036
1.92483
1.93037
1.93702
1.94697
1.95903
1.97305
1.98922
2.00819
2.02864
2.04591
2.05674
2.06091
2.0621
2.06116
2.05574
2.04588
2.03028
2.012
1.99191
1.97048
1.94608
1.92227
1.9039
1.89011
1.87873
1.87068
1.86403
1.85861
1.85352
1.84873
1.84393
1.83868
1.83287
1.82596
1.81761
1.80756
1.79563
1.78141
1.76528
1.75001
1.72686
1.85889
1.82669
1.79426
1.7546
1.73187
1.70905
1.67744
1.6632
1.64716
1.6288
1.62476
1.62321
1.61762
1.60862
1.5959
1.58595
1.58901
1.59515
1.60425
1.62765
1.69311
1.82811
2.02686
1.93586
1.91364
1.88274
1.83902
1.80749
1.78167
1.76046
1.73998
1.71998
1.69656
1.67165
1.66121
1.66849
1.6717
1.69377
1.74645
1.84796
1.9907
1.94973
1.9137
1.91367
1.91563
1.91472
1.91243
1.90963
1.90435
1.89819
1.89636
1.89659
1.89675
1.89603
1.89673
1.89721
1.89824
1.90192
1.90813
1.91511
1.92228
1.92964
1.9391
1.95154
1.96591
1.982
2.0001
2.02134
2.04376
2.05705
2.06319
2.06556
2.06543
2.06396
2.05827
2.04793
2.0298
2.00718
1.98365
1.96217
1.94014
1.91973
1.90255
1.88968
1.87966
1.87118
1.86509
1.85973
1.85466
1.84941
1.84417
1.83839
1.8316
1.82363
1.8138
1.80222
1.78854
1.77289
1.75667
1.73215
1.8443
1.81583
1.79234
1.75647
1.72745
1.71412
1.6875
1.66159
1.65321
1.63645
1.62328
1.62105
1.61628
1.60685
1.59562
1.59699
1.60107
1.60745
1.62703
1.68128
1.79457
2.02076
1.98859
1.92832
1.90122
1.8823
1.86082
1.83781
1.81663
1.79248
1.77496
1.755
1.73044
1.70167
1.66814
1.66428
1.66871
1.67591
1.70406
1.7649
1.87814
1.96219
1.91499
1.89927
1.89994
1.89978
1.89653
1.89277
1.88891
1.88442
1.88429
1.88349
1.8821
1.87996
1.88166
1.88364
1.88622
1.89003
1.89527
1.90144
1.90821
1.91668
1.92751
1.94039
1.95516
1.97129
1.98891
2.00923
2.03202
2.04995
2.06259
2.06748
2.06731
2.06512
2.06025
2.05241
2.04044
2.02139
1.99581
1.9721
1.95307
1.93497
1.91575
1.89982
1.8876
1.87915
1.8717
1.86536
1.8602
1.85495
1.84936
1.84352
1.83696
1.82924
1.81988
1.80859
1.79532
1.77999
1.76364
1.73835
1.83871
1.8065
1.78826
1.76059
1.72394
1.71005
1.69315
1.66348
1.6512
1.64151
1.62566
1.61513
1.60968
1.60062
1.6015
1.60593
1.61216
1.63011
1.67832
1.77799
1.99065
2.02386
1.95736
1.9383
1.92041
1.91273
1.89951
1.88083
1.85547
1.82363
1.80134
1.77562
1.74839
1.71936
1.68951
1.66515
1.67401
1.67819
1.68708
1.71543
1.77768
1.90632
1.92806
1.89176
1.88661
1.88539
1.88042
1.87854
1.87526
1.87358
1.87221
1.87005
1.86784
1.8702
1.87262
1.87321
1.87312
1.87615
1.88063
1.88602
1.89244
1.90105
1.91175
1.92447
1.93946
1.95608
1.97388
1.99334
2.01544
2.03781
2.05277
2.05959
2.06248
2.06218
2.05917
2.05235
2.04146
2.02727
2.00851
1.98353
1.96129
1.9435
1.92704
1.91065
1.89609
1.88602
1.87826
1.87181
1.86574
1.85909
1.85409
1.84876
1.84218
1.83463
1.8255
1.8145
1.80186
1.7868
1.77033
1.74444
1.84325
1.8005
1.78253
1.76111
1.72619
1.70398
1.69057
1.66292
1.64519
1.6402
1.62934
1.61294
1.59453
1.59812
1.60622
1.61232
1.62975
1.67545
1.76912
1.9446
2.04165
1.96293
1.96043
1.95404
1.9509
1.94276
1.92793
1.90682
1.87685
1.84765
1.81831
1.78843
1.75819
1.73427
1.70852
1.68084
1.66914
1.67749
1.6784
1.69056
1.72415
1.79109
1.91039
1.903
1.87373
1.87242
1.86661
1.86469
1.8652
1.86337
1.85905
1.85789
1.85845
1.85931
1.85955
1.86015
1.86274
1.86715
1.87266
1.87671
1.87924
1.8857
1.89477
1.90628
1.9197
1.9358
1.95374
1.9734
1.9961
2.0197
2.03481
2.04465
2.05159
2.05267
2.05134
2.04779
2.03912
2.02663
2.01164
1.99324
1.9701
1.95008
1.93383
1.91858
1.9051
1.89456
1.88456
1.8751
1.86956
1.86499
1.85987
1.85379
1.84737
1.84009
1.83147
1.82069
1.80815
1.79347
1.77699
1.7504
1.85087
1.80625
1.78136
1.76135
1.72804
1.70281
1.69018
1.66568
1.6396
1.63613
1.62931
1.61252
1.58539
1.5963
1.6088
1.62634
1.6681
1.75649
1.90234
2.04795
1.98248
1.96807
1.97014
1.96971
1.96523
1.95474
1.93491
1.90898
1.88112
1.85569
1.82727
1.79929
1.77361
1.74895
1.72431
1.69953
1.67113
1.67146
1.67789
1.6808
1.69728
1.73493
1.80157
1.898
1.88251
1.85677
1.85604
1.85475
1.85345
1.85154
1.8493
1.84965
1.85013
1.85019
1.85122
1.85341
1.85528
1.85765
1.86031
1.86315
1.86897
1.87543
1.88251
1.89038
1.89998
1.91298
1.93019
1.95094
1.97417
1.99235
2.00849
2.02684
2.03657
2.03916
2.03855
2.03586
2.03005
2.02135
2.00927
1.99419
1.97744
1.95811
1.93978
1.92577
1.91319
1.90008
1.88771
1.88155
1.87598
1.86964
1.8631
1.85838
1.85325
1.84578
1.83737
1.82707
1.81453
1.80032
1.78426
1.75698
1.86823
1.82161
1.78819
1.76423
1.7316
1.70067
1.69119
1.67204
1.64041
1.6291
1.62619
1.60914
1.59351
1.60337
1.61715
1.65732
1.74067
1.87676
2.04337
1.98484
1.96702
1.97271
1.97056
1.96597
1.95895
1.94796
1.92836
1.90674
1.88362
1.85928
1.83404
1.80945
1.78681
1.76244
1.73783
1.71382
1.69035
1.66732
1.67183
1.67746
1.68315
1.70257
1.74348
1.81368
1.88
1.85614
1.84309
1.84398
1.84191
1.84342
1.84135
1.84018
1.84043
1.84219
1.84263
1.84389
1.84576
1.84794
1.85056
1.85418
1.85843
1.86261
1.86769
1.87455
1.88363
1.8948
1.9087
1.92625
1.9457
1.96336
1.98162
2.00336
2.01631
2.02077
2.02087
2.01976
2.01702
2.01171
2.00364
1.99183
1.978
1.96358
1.94798
1.93197
1.91698
1.90537
1.8972
1.88943
1.87965
1.87194
1.86793
1.86382
1.85787
1.85137
1.84338
1.8324
1.82064
1.80753
1.79066
1.76307
1.89489
1.84214
1.79589
1.76721
1.73799
1.70012
1.68935
1.67892
1.64964
1.62493
1.61925
1.61056
1.61049
1.61888
1.64674
1.72259
1.85124
2.02844
1.97665
1.94161
1.94532
1.95193
1.96005
1.95718
1.95286
1.94119
1.9292
1.91412
1.89273
1.86805
1.84253
1.81668
1.79324
1.77061
1.74687
1.72261
1.70184
1.67925
1.67156
1.67699
1.68163
1.68867
1.70901
1.7512
1.83054
1.85664
1.83419
1.83057
1.83367
1.83305
1.83221
1.82857
1.82901
1.83209
1.83457
1.8357
1.83739
1.83961
1.84255
1.84614
1.8489
1.85233
1.85739
1.86385
1.87146
1.8797
1.88944
1.90127
1.9162
1.93273
1.95188
1.97308
1.98999
1.99886
2.00132
2.00145
2.00113
1.99864
1.99381
1.98597
1.97555
1.96413
1.9517
1.93712
1.92485
1.91469
1.90419
1.89131
1.88451
1.87955
1.87475
1.86744
1.86213
1.85625
1.8476
1.83863
1.82794
1.81313
1.79672
1.77023
1.90928
1.86115
1.81019
1.77341
1.74472
1.70329
1.68269
1.68101
1.661
1.62724
1.61288
1.62217
1.63444
1.65239
1.71311
1.83095
2.01004
1.96733
1.91875
1.92106
1.92738
1.93753
1.94943
1.94688
1.94239
1.93444
1.92404
1.909
1.89076
1.87069
1.84834
1.82457
1.79958
1.77849
1.75797
1.73731
1.71686
1.69557
1.67521
1.67804
1.6818
1.68466
1.69348
1.71646
1.7594
1.83458
1.83778
1.81752
1.81852
1.8198
1.82243
1.82175
1.8219
1.82268
1.82458
1.82724
1.82903
1.83147
1.83384
1.83669
1.84122
1.8457
1.84887
1.85318
1.85853
1.8646
1.87165
1.88082
1.89232
1.90633
1.92363
1.94335
1.9592
1.96959
1.97722
1.98251
1.98616
1.98616
1.98402
1.97857
1.97095
1.96236
1.95257
1.94271
1.93255
1.92134
1.90819
1.90032
1.8928
1.88413
1.87762
1.87298
1.86747
1.85995
1.853
1.84497
1.83362
1.82025
1.80487
1.77705
1.96289
1.86728
1.82576
1.78378
1.75309
1.71462
1.67611
1.67616
1.66648
1.63082
1.62674
1.64163
1.66296
1.71989
1.82575
2.00103
1.95312
1.90689
1.90065
1.90652
1.91357
1.92122
1.9266
1.93211
1.92953
1.92495
1.91642
1.90394
1.88792
1.86906
1.84899
1.82953
1.80979
1.79154
1.77313
1.7544
1.7347
1.71298
1.69264
1.67634
1.68089
1.68643
1.68865
1.69917
1.72436
1.76625
1.82926
1.82317
1.80673
1.80808
1.80886
1.80999
1.81267
1.81395
1.8162
1.81796
1.81981
1.82286
1.82718
1.83058
1.83247
1.8355
1.83852
1.84198
1.84635
1.85159
1.85747
1.86451
1.87308
1.88451
1.89895
1.91408
1.92574
1.93726
1.94933
1.96294
1.97161
1.97266
1.97107
1.96758
1.96317
1.95871
1.95301
1.9457
1.93753
1.92801
1.91862
1.90885
1.89781
1.89062
1.88531
1.87875
1.87088
1.86494
1.85837
1.84969
1.83934
1.82713
1.81181
1.78353
1.97179
1.89888
1.83536
1.80024
1.763
1.72612
1.67879
1.67227
1.66841
1.64613
1.65245
1.66815
1.72351
1.82661
2.00325
1.96342
1.91989
1.87845
1.88488
1.89701
1.90261
1.90425
1.90326
1.90479
1.9071
1.90625
1.90292
1.89669
1.88649
1.87258
1.85611
1.83855
1.82064
1.8029
1.78593
1.76863
1.75084
1.73203
1.71224
1.68705
1.68143
1.68564
1.6895
1.69241
1.70488
1.73071
1.77029
1.82041
1.81213
1.79726
1.79719
1.79823
1.80093
1.80356
1.80687
1.81093
1.81243
1.81412
1.81742
1.82177
1.82662
1.82916
1.83021
1.83201
1.83495
1.8387
1.84333
1.84873
1.85601
1.86545
1.87629
1.88638
1.89705
1.90888
1.92308
1.94043
1.95222
1.95428
1.95499
1.95618
1.9566
1.95566
1.95313
1.94853
1.94241
1.93518
1.92642
1.914
1.90414
1.89855
1.89235
1.88423
1.87798
1.87152
1.86407
1.8563
1.84622
1.83275
1.81697
1.7894
2.08392
1.95581
1.85065
1.80389
1.76631
1.72874
1.68298
1.6663
1.67239
1.68029
1.68852
1.72694
1.83087
2.01254
1.97522
1.93221
1.88168
1.88203
1.88842
1.88814
1.88729
1.88534
1.88328
1.88323
1.88347
1.88592
1.88423
1.88161
1.87708
1.86902
1.85776
1.84398
1.82866
1.81246
1.79616
1.78058
1.76463
1.74819
1.73022
1.71163
1.68809
1.68655
1.68878
1.69134
1.69464
1.70855
1.73526
1.77439
1.81348
1.80441
1.7891
1.79005
1.79315
1.79543
1.79864
1.80249
1.80669
1.80896
1.81102
1.81483
1.81881
1.82242
1.82314
1.82404
1.82607
1.82886
1.83234
1.8368
1.84262
1.84934
1.85705
1.86627
1.8759
1.88679
1.9
1.91616
1.92798
1.93376
1.93972
1.94686
1.95377
1.95427
1.95274
1.94997
1.94603
1.94068
1.93391
1.9257
1.91558
1.90434
1.89662
1.89078
1.88418
1.87687
1.86913
1.86131
1.85147
1.839
1.82425
1.79651
2.20884
1.93166
1.87825
1.81034
1.77532
1.73715
1.68784
1.67793
1.69047
1.71203
1.75339
1.8458
2.02644
1.99313
1.94728
1.89722
1.88332
1.88566
1.88381
1.881
1.87633
1.86884
1.86507
1.86399
1.86299
1.86079
1.85846
1.85571
1.85276
1.84802
1.84112
1.83249
1.82245
1.81137
1.79911
1.78574
1.77149
1.75644
1.74081
1.72395
1.70631
1.68672
1.68826
1.68987
1.69228
1.69593
1.71075
1.73812
1.77375
1.80856
1.80065
1.78921
1.7847
1.78484
1.78806
1.79274
1.79759
1.80208
1.80545
1.80821
1.81285
1.81564
1.8167
1.81762
1.81952
1.82208
1.82441
1.8273
1.83127
1.83647
1.84299
1.85038
1.85846
1.86844
1.88082
1.89497
1.90494
1.91398
1.92457
1.93724
1.94904
1.95209
1.95193
1.95128
1.94965
1.94622
1.94068
1.93346
1.92432
1.91464
1.90361
1.89559
1.88941
1.88358
1.87558
1.8664
1.85678
1.84598
1.8307
1.80363
2.45244
2.17153
1.90664
1.85146
1.7947
1.76405
1.71349
1.71035
1.72902
1.77604
1.87477
2.05378
2.0239
1.97296
1.90745
1.88721
1.8927
1.8918
1.88712
1.87979
1.86992
1.85972
1.84995
1.84352
1.83778
1.83392
1.83135
1.82921
1.82685
1.82429
1.82093
1.81646
1.81035
1.80275
1.79383
1.78364
1.77279
1.76064
1.7471
1.73285
1.716
1.69712
1.68635
1.68905
1.6881
1.69108
1.69638
1.71277
1.73872
1.77931
1.80347
1.79668
1.78472
1.78376
1.78432
1.7869
1.79126
1.7962
1.80107
1.80462
1.80842
1.81131
1.81221
1.81258
1.81318
1.81524
1.81884
1.82054
1.82313
1.82708
1.83219
1.83834
1.84684
1.85761
1.86863
1.87805
1.8874
1.8983
1.91083
1.92613
1.94151
1.94887
1.95217
1.95335
1.953
1.95105
1.94701
1.94057
1.93217
1.92284
1.91296
1.90258
1.89462
1.88826
1.88188
1.87341
1.86334
1.85182
1.83688
1.81024
2.16379
2.37992
2.05873
1.91848
1.83042
1.76271
1.74241
1.75057
1.78464
1.89352
2.09568
2.05647
2.00383
1.93271
1.89947
1.90364
1.90076
1.89523
1.88853
1.87844
1.86281
1.85224
1.84137
1.8309
1.82068
1.81325
1.80834
1.80511
1.80218
1.79998
1.79788
1.79545
1.79219
1.78776
1.78234
1.77534
1.76722
1.75773
1.74663
1.73413
1.72068
1.70493
1.68644
1.6825
1.68338
1.68414
1.68792
1.69442
1.71317
1.74218
1.77233
1.80594
1.7984
1.78673
1.78661
1.78552
1.78664
1.78946
1.79422
1.7993
1.80304
1.80774
1.80811
1.80808
1.80862
1.81003
1.81208
1.81505
1.81751
1.81982
1.82385
1.83027
1.83882
1.84827
1.85659
1.86542
1.87566
1.88716
1.90005
1.91491
1.93215
1.94462
1.95205
1.95531
1.95621
1.95543
1.95257
1.94729
1.93946
1.92984
1.9203
1.91148
1.902
1.89438
1.88683
1.8786
1.86914
1.85782
1.84372
1.81691
1.34456
2.19093
2.12862
1.88584
1.83976
1.77337
1.78022
1.81518
1.91872
2.12714
2.07496
2.02606
1.95959
1.91921
1.91952
1.9164
1.90841
1.8982
1.88776
1.87542
1.86284
1.84911
1.83316
1.81756
1.80846
1.80071
1.79413
1.78864
1.78426
1.78065
1.77821
1.7764
1.77418
1.77127
1.7676
1.76261
1.75644
1.74925
1.74055
1.73004
1.71846
1.70614
1.69243
1.6777
1.67848
1.6795
1.6818
1.68649
1.69576
1.71136
1.74011
1.78579
1.8074
1.80294
1.79396
1.79046
1.7888
1.78978
1.79192
1.79501
1.79889
1.80533
1.80562
1.80479
1.80548
1.80664
1.80808
1.81014
1.81308
1.81514
1.81867
1.82413
1.83206
1.8402
1.84809
1.85709
1.86728
1.8786
1.89121
1.90547
1.92223
1.93944
1.9509
1.95753
1.95981
1.95945
1.95754
1.95333
1.94676
1.9379
1.92723
1.91787
1.90971
1.9012
1.89289
1.88444
1.87521
1.86433
1.85042
1.82396
1.05961
1.61152
2.37213
2.12009
1.87375
1.82688
1.85481
1.98184
2.1935
2.12255
2.07286
1.99366
1.94278
1.9447
1.94216
1.93324
1.91997
1.90615
1.8947
1.88309
1.86923
1.85313
1.8377
1.82107
1.80723
1.79849
1.79119
1.7842
1.77718
1.77057
1.76402
1.76033
1.75733
1.7547
1.75191
1.74855
1.74442
1.73943
1.73352
1.72589
1.71673
1.70916
1.70009
1.6835
1.67737
1.67874
1.68018
1.68375
1.68778
1.69663
1.7195
1.74818
1.77818
1.81596
1.81207
1.80278
1.79752
1.79518
1.79234
1.7932
1.79602
1.80206
1.80507
1.8036
1.80251
1.80271
1.80406
1.80622
1.80885
1.81175
1.81532
1.81982
1.82618
1.83334
1.84121
1.85017
1.86009
1.8711
1.88349
1.89787
1.91453
1.93315
1.94921
1.95917
1.96364
1.96422
1.96301
1.95966
1.95363
1.94561
1.93591
1.92515
1.91612
1.90783
1.89949
1.89076
1.88153
1.87109
1.8575
1.83154
1.03372
1.23205
2.01379
2.31163
2.01873
1.96116
2.04348
2.27394
2.14592
2.11078
2.03098
1.96822
1.96919
1.96963
1.96354
1.95243
1.93431
1.9214
1.90695
1.89013
1.87138
1.85074
1.83417
1.81881
1.80492
1.79463
1.78626
1.77842
1.77118
1.76398
1.75625
1.75139
1.74752
1.74623
1.74493
1.74303
1.74038
1.73719
1.73387
1.73002
1.72514
1.72013
1.71637
1.70958
1.69777
1.69634
1.69472
1.69592
1.70116
1.70235
1.71184
1.72589
1.75428
1.7914
1.82398
1.82142
1.81334
1.80349
1.79957
1.79714
1.79821
1.80188
1.80394
1.80179
1.80049
1.8002
1.80099
1.80215
1.8045
1.80795
1.81221
1.81653
1.8216
1.828