/*--------------------------------*- C++ -*----------------------------------*\
| =========                 |                                                 |
| \\      /  F ield         | OpenFOAM: The Open Source CFD Toolbox           |
|  \\    /   O peration     | Version:  v2106                                 |
|   \\  /    A nd           | Website:  www.openfoam.com                      |
|    \\/     M anipulation  |                                                 |
\*---------------------------------------------------------------------------*/
FoamFile
{
    version     2.0;
    format      ascii;
    arch        "LSB;label=32;scalar=64";
    class       volVectorField;
    location    "2";
    object      U;
}
// * * * * * * * * * * * * * * * * * * * * * * * * * * * * * * * * * * * * * //

dimensions      [0 1 -1 0 0 0 0];

internalField   nonuniform List<vector> 
5250
(
(3 -7.91885e-14 0)
(3 3.29631e-13 0)
(3 -4.68448e-13 0)
(3 -4.96232e-12 0)
(3 -2.37081e-11 0)
(3 -1.06585e-10 0)
(3 7.01456e-10 0)
(3 4.70583e-09 0)
(3.00002 7.58402e-08 0)
(2.99993 5.55302e-07 0)
(3.00072 6.08172e-06 0)
(2.99867 5.0592e-05 0)
(3.04025 0.000505766 0)
(2.98833 0.00293265 0)
(2.32706 0.00812595 0)
(0.521025 0.0239453 0)
(0.591867 0.0209856 0)
(0.546593 0.0219281 0)
(0.470151 0.024359 0)
(0.406809 0.0268722 0)
(0.341652 0.0252358 0)
(0.271324 0.0281275 0)
(0.192353 0.0319612 0)
(0.118614 0.032603 0)
(0.0415789 0.0356994 0)
(3 2.47093e-14 0)
(3 -1.16886e-13 0)
(3 -1.63984e-13 0)
(3 -3.48953e-12 0)
(3 5.72998e-12 0)
(3 -9.85735e-11 0)
(3 2.88051e-09 0)
(3 1.52564e-08 0)
(3.00002 2.35515e-07 0)
(2.99993 1.6764e-06 0)
(3.00071 1.86274e-05 0)
(2.99866 0.000154186 0)
(3.03942 0.00155297 0)
(2.99099 0.00899354 0)
(2.33813 0.0269468 0)
(0.528886 0.0716338 0)
(0.589078 0.0643101 0)
(0.545815 0.0661997 0)
(0.470105 0.0740781 0)
(0.406639 0.0742541 0)
(0.3394 0.0834368 0)
(0.266293 0.0930482 0)
(0.192002 0.0943306 0)
(0.118772 0.093136 0)
(0.0381505 0.0990809 0)
(3 1.71483e-13 0)
(3 -1.41993e-12 0)
(3 -6.06343e-13 0)
(3 -4.95031e-11 0)
(3 -4.32685e-10 0)
(3 -2.38736e-09 0)
(3 4.70595e-10 0)
(3 1.88846e-08 0)
(3.00002 3.83651e-07 0)
(2.99993 2.70513e-06 0)
(3.00069 3.06767e-05 0)
(2.99867 0.00025109 0)
(3.03767 0.00255377 0)
(2.99669 0.0151205 0)
(2.36526 0.0444413 0)
(0.54874 0.122589 0)
(0.58402 0.104316 0)
(0.546738 0.109826 0)
(0.477483 0.122438 0)
(0.410946 0.128818 0)
(0.34338 0.137252 0)
(0.273427 0.147168 0)
(0.200184 0.152703 0)
(0.119846 0.160209 0)
(0.0406078 0.166623 0)
(3 9.15571e-14 0)
(3 -7.18713e-13 0)
(3 1.72443e-12 0)
(3 -2.54746e-11 0)
(3 -9.58014e-11 0)
(3 -1.01871e-09 0)
(3 6.26171e-09 0)
(3 2.32762e-08 0)
(3.00002 5.51364e-07 0)
(2.99994 3.42663e-06 0)
(3.00065 4.23587e-05 0)
(2.9987 0.000334527 0)
(3.03505 0.00350687 0)
(3.00442 0.0213406 0)
(2.40448 0.0634505 0)
(0.576124 0.186103 0)
(0.581316 0.13493 0)
(0.552692 0.15075 0)
(0.493314 0.171356 0)
(0.421539 0.178925 0)
(0.352892 0.195531 0)
(0.282536 0.208967 0)
(0.202112 0.222624 0)
(0.126425 0.226111 0)
(0.0391306 0.234685 0)
(3 -2.09816e-13 0)
(3 2.41588e-13 0)
(3 2.64339e-12 0)
(3 9.19397e-12 0)
(3 5.14563e-10 0)
(3 -3.82597e-09 0)
(3 -2.02997e-10 0)
(3 2.43436e-08 0)
(3.00001 6.15106e-07 0)
(2.99994 4.24513e-06 0)
(3.00058 4.87663e-05 0)
(2.99884 0.000405898 0)
(3.0313 0.0041613 0)
(3.01466 0.0273309 0)
(2.45454 0.0825181 0)
(0.648757 0.254499 0)
(0.559404 0.153623 0)
(0.551481 0.188618 0)
(0.501868 0.216745 0)
(0.431567 0.2397 0)
(0.372859 0.248773 0)
(0.294245 0.270931 0)
(0.220865 0.281997 0)
(0.130468 0.297529 0)
(0.0477411 0.306961 0)
(3 -3.20132e-13 0)
(3 1.35202e-12 0)
(3 2.70113e-12 0)
(3 7.0182e-13 0)
(3 5.60648e-10 0)
(3 -3.1912e-09 0)
(3 1.94091e-08 0)
(3 -7.41265e-08 0)
(3.00001 9.27595e-07 0)
(2.99994 -1.15786e-07 0)
(3.00055 5.84981e-05 0)
(2.99878 0.000290329 0)
(3.02828 0.00489978 0)
(3.02674 0.0336312 0)
(2.51859 0.100316 0)
(0.762134 0.332387 0)
(0.526431 0.191954 0)
(0.554625 0.229075 0)
(0.507379 0.258712 0)
(0.454083 0.276839 0)
(0.383303 0.311509 0)
(0.312914 0.334226 0)
(0.224426 0.362258 0)
(0.148292 0.371486 0)
(0.0463832 0.386609 0)
(3 -6.9357e-14 0)
(3 2.53174e-12 0)
(3 -2.90605e-13 0)
(3 4.23885e-11 0)
(3 -7.02328e-10 0)
(3 3.08194e-09 0)
(3 5.42457e-08 0)
(3 -6.80093e-08 0)
(3 1.21119e-06 0)
(3.00001 3.04352e-07 0)
(3.00013 3.26911e-05 0)
(3.00068 0.000406429 0)
(3.01305 -0.00183572 0)
(3.04507 0.0388188 0)
(2.59906 0.118579 0)
(0.912853 0.423288 0)
(0.488322 0.217521 0)
(0.560322 0.262016 0)
(0.519168 0.286872 0)
(0.454275 0.335402 0)
(0.402107 0.365938 0)
(0.328694 0.401623 0)
(0.265391 0.421241 0)
(0.166652 0.451892 0)
(0.0621965 0.477254 0)
(3 1.44169e-14 0)
(3 2.97231e-13 0)
(3 2.87366e-12 0)
(3 -3.62676e-11 0)
(3 2.07123e-10 0)
(3 5.72104e-10 0)
(3 1.59106e-08 0)
(3 1.46704e-08 0)
(3 1.22917e-06 0)
(3.00001 -3.12845e-06 0)
(3.00005 7.34736e-05 0)
(3.00102 0.000190189 0)
(3.00636 0.00432285 0)
(3.06379 0.0406564 0)
(2.69402 0.129371 0)
(1.11856 0.534641 0)
(0.427205 0.261893 0)
(0.557626 0.301167 0)
(0.511186 0.325453 0)
(0.46487 0.372051 0)
(0.413133 0.422585 0)
(0.367382 0.455055 0)
(0.27157 0.509701 0)
(0.190824 0.547909 0)
(0.0656084 0.587267 0)
(3 -8.18048e-14 0)
(3 2.37191e-13 0)
(3 1.51128e-12 0)
(3 1.54236e-11 0)
(3 1.30677e-10 0)
(3 1.11487e-09 0)
(3 1.08637e-08 0)
(3 8.59984e-08 0)
(3 7.73135e-07 0)
(3.00002 7.05772e-06 0)
(3.00002 6.1576e-05 0)
(3.00084 -0.000638596 0)
(3.00308 0.004061 0)
(3.07113 0.0352775 0)
(2.81227 0.111766 0)
(1.48263 0.640434 0)
(0.414814 0.308311 0)
(0.569054 0.325093 0)
(0.515844 0.350472 0)
(0.478977 0.404332 0)
(0.445074 0.45796 0)
(0.394039 0.520082 0)
(0.330661 0.580066 0)
(0.239336 0.634985 0)
(0.142066 0.717406 0)
(3 3.57556e-15 0)
(3 1.0348e-13 0)
(3 -1.20325e-12 0)
(3 1.51637e-11 0)
(3 -1.32223e-11 0)
(3 1.13662e-09 0)
(3 1.04846e-09 0)
(3 3.63228e-08 0)
(3 5.61922e-07 0)
(3.00001 -3.92985e-06 0)
(3.00002 6.3527e-05 0)
(3.00057 4.13544e-05 0)
(3.00039 0.00262362 0)
(3.06598 0.0248591 0)
(2.8928 0.0513238 0)
(2.00781 0.697322 0)
(0.492713 0.411498 0)
(0.606035 0.381536 0)
(0.554901 0.372373 0)
(0.494979 0.443671 0)
(0.475132 0.496871 0)
(0.433842 0.572207 0)
(0.374236 0.664185 0)
(0.302765 0.755444 0)
(0.0889807 0.950374 0)
(3 -1.27652e-14 0)
(3 -3.76037e-14 0)
(3 8.0969e-13 0)
(3 -3.90432e-12 0)
(3 8.11241e-11 0)
(3 -2.59944e-11 0)
(3 4.89346e-10 0)
(3 6.03302e-09 0)
(3 5.18637e-07 0)
(3 2.28475e-06 0)
(3.00002 9.75081e-06 0)
(3.00054 0.000179068 0)
(2.99845 0.00200693 0)
(3.05585 0.0187476 0)
(2.9378 0.0490663 0)
(2.28791 0.586415 0)
(0.642585 0.544203 0)
(0.681158 0.447786 0)
(0.614393 0.420123 0)
(0.54322 0.475507 0)
(0.517973 0.535277 0)
(0.4956 0.617308 0)
(0.446396 0.737029 0)
(0.474232 0.857913 0)
(0.408724 1.13047 0)
(3 -2.23037e-15 0)
(3 -1.30989e-14 0)
(3 4.23823e-13 0)
(3 -9.09016e-13 0)
(3 4.67286e-11 0)
(3 -1.16521e-09 0)
(3 5.22349e-09 0)
(3 -6.9575e-10 0)
(3 3.56182e-07 0)
(3.00002 1.43597e-06 0)
(2.99992 2.39111e-05 0)
(3.00075 0.000162774 0)
(2.9982 0.00148792 0)
(3.04548 0.0159153 0)
(2.9842 0.0702932 0)
(2.47553 0.471106 0)
(0.807802 0.630777 0)
(0.761269 0.539138 0)
(0.696094 0.472475 0)
(0.605794 0.530874 0)
(0.582615 0.572979 0)
(0.578685 0.648225 0)
(0.550309 0.783616 0)
(0.690231 0.906894 0)
(0.661009 1.08583 0)
(3 3.11118e-14 0)
(3 3.37477e-14 0)
(3 1.03586e-12 0)
(3 1.18807e-11 0)
(3 1.4187e-11 0)
(3 8.10804e-10 0)
(3 6.31441e-09 0)
(3 5.3667e-08 0)
(3 1.04906e-09 0)
(3.00001 2.27946e-06 0)
(2.99995 7.76156e-06 0)
(3.00054 0.000154272 0)
(2.99886 0.00105905 0)
(3.02813 -0.0283385 0)
(3.02801 0.101658 0)
(2.6438 0.375685 0)
(1.04327 0.714865 0)
(0.739801 0.554796 0)
(0.748461 0.563859 0)
(0.709922 0.569069 0)
(0.650031 0.620474 0)
(0.656871 0.676901 0)
(0.654808 0.777199 0)
(0.780247 0.909576 0)
(0.86082 0.961189 0)
(3 9.40607e-15 0)
(3 -6.44936e-15 0)
(3 2.50374e-13 0)
(3 4.25838e-12 0)
(3 -1.18521e-12 0)
(3 5.78913e-10 0)
(3 -5.721e-10 0)
(3 5.64132e-08 0)
(3 1.26235e-08 0)
(3 1.6243e-06 0)
(3.00001 4.54046e-06 0)
(3.00009 0.000102143 0)
(3.0008 0.000424462 0)
(3.00453 0.00749123 0)
(3.07391 0.068465 0)
(2.80798 0.296571 0)
(1.40806 0.799606 0)
(0.694495 0.569923 0)
(0.766038 0.574256 0)
(0.764236 0.63644 0)
(0.734927 0.660559 0)
(0.737264 0.69723 0)
(0.748081 0.766816 0)
(0.855679 0.849491 0)
(0.946715 0.905876 0)
(3 -5.27892e-15 0)
(3 -1.39314e-14 0)
(3 1.64629e-13 0)
(3 6.77697e-13 0)
(3 1.29592e-11 0)
(3 4.1145e-11 0)
(3 6.16227e-10 0)
(3 1.76534e-08 0)
(3 8.5213e-08 0)
(3 1.13771e-06 0)
(3.00002 7.52451e-06 0)
(2.99996 7.98028e-05 0)
(3.00101 0.00060101 0)
(3.00047 0.00546833 0)
(3.07084 0.0450303 0)
(2.9447 0.184475 0)
(2.02454 0.909937 0)
(0.717582 0.622442 0)
(0.78439 0.60813 0)
(0.80123 0.646425 0)
(0.79285 0.687879 0)
(0.807818 0.719351 0)
(0.830446 0.765165 0)
(0.901951 0.829694 0)
(1.00755 0.863063 0)
(3 1.05854e-15 0)
(3 2.85979e-14 0)
(3 6.94333e-14 0)
(3 2.79601e-12 0)
(3 9.94006e-12 0)
(3 -1.06731e-10 0)
(3 5.22111e-10 0)
(3 5.08403e-09 0)
(3 4.73593e-08 0)
(3 3.96818e-07 0)
(3.00002 3.87551e-06 0)
(2.99994 3.2924e-05 0)
(3.00087 0.000314511 0)
(2.99895 0.00275535 0)
(3.05424 0.0263036 0)
(2.98995 0.106559 0)
(2.44255 0.776556 0)
(0.916933 0.711658 0)
(0.84704 0.645772 0)
(0.847125 0.657925 0)
(0.853465 0.691696 0)
(0.868499 0.728909 0)
(0.899167 0.767035 0)
(0.956798 0.812163 0)
(1.04603 0.844036 0)
(3 -1.17097e-14 0)
(3 8.34681e-14 0)
(3 -1.85134e-13 0)
(3 2.83557e-12 0)
(3 7.96242e-13 0)
(3 1.31195e-10 0)
(3 1.25027e-09 0)
(3 -2.1436e-10 0)
(3 5.04115e-08 0)
(3 1.38243e-07 0)
(3.00001 3.23342e-06 0)
(2.99994 1.76733e-05 0)
(3.00061 0.000236703 0)
(2.99884 0.00173124 0)
(3.03263 -0.0244018 0)
(3.02973 0.14467 0)
(2.70289 0.614681 0)
(1.23495 0.816529 0)
(0.892919 0.689794 0)
(0.898357 0.687376 0)
(0.907414 0.709431 0)
(0.925899 0.739344 0)
(0.961013 0.767006 0)
(1.01284 0.799449 0)
(1.09271 0.815868 0)
(3 2.51769e-16 0)
(3 2.52513e-14 0)
(3 1.09834e-13 0)
(3 1.30939e-12 0)
(3 1.33197e-11 0)
(3 1.00775e-10 0)
(3 4.93732e-10 0)
(3 -1.57758e-09 0)
(3 5.73968e-08 0)
(3 9.80775e-09 0)
(3 2.14294e-06 0)
(3.00001 4.94304e-06 0)
(3.0001 0.00013449 0)
(3.00084 0.000465224 0)
(3.00475 0.00943054 0)
(3.08051 0.0826702 0)
(2.90992 0.434744 0)
(1.74017 0.906943 0)
(0.905581 0.726295 0)
(0.927645 0.719575 0)
(0.952132 0.733509 0)
(0.976371 0.758525 0)
(1.01207 0.778509 0)
(1.0599 0.800059 0)
(1.12939 0.806313 0)
(3 -1.44661e-16 0)
(3 1.64748e-15 0)
(3 4.19899e-14 0)
(3 2.09101e-13 0)
(3 3.1564e-12 0)
(3 1.76844e-11 0)
(3 2.09005e-10 0)
(3 1.15051e-09 0)
(3 1.42861e-08 0)
(3 1.10783e-07 0)
(3 1.05063e-06 0)
(3.00003 8.76149e-06 0)
(2.99991 7.8869e-05 0)
(3.00128 0.000664792 0)
(2.99826 0.00564297 0)
(3.07544 0.0501949 0)
(3.02292 0.264301 0)
(2.34617 0.969545 0)
(1.03567 0.798832 0)
(0.981883 0.752033 0)
(0.990098 0.741209 0)
(1.01354 0.752842 0)
(1.0512 0.769695 0)
(1.10054 0.7886 0)
(1.16661 0.794628 0)
(3 1.2088e-15 0)
(3 6.38166e-16 0)
(3 5.66372e-14 0)
(3 -2.63997e-14 0)
(3 4.86161e-12 0)
(3 -1.16745e-11 0)
(3 2.79869e-10 0)
(3 2.04002e-09 0)
(3 -6.20834e-10 0)
(3 6.13603e-08 0)
(3 -1.32076e-07 0)
(3 4.28006e-06 0)
(3.00002 2.15988e-05 0)
(3.00026 0.000105116 0)
(3.00137 0.00275354 0)
(3.02359 -0.00818248 0)
(3.07283 0.169271 0)
(2.7429 0.772242 0)
(1.38419 0.88172 0)
(1.03666 0.779199 0)
(1.03649 0.755363 0)
(1.05462 0.760366 0)
(1.08724 0.772685 0)
(1.13346 0.78722 0)
(1.19382 0.791785 0)
(3 4.35342e-16 0)
(3 1.34239e-15 0)
(3 1.24239e-14 0)
(3 1.25981e-13 0)
(3 8.32617e-13 0)
(3 6.90311e-12 0)
(3 6.26385e-11 0)
(3 5.17444e-10 0)
(3 4.0641e-09 0)
(3 3.68546e-08 0)
(3 2.5758e-07 0)
(2.99999 2.72025e-06 0)
(3.00009 2.26303e-05 0)
(2.99962 0.000201622 0)
(3.00353 0.00165488 0)
(2.99376 0.0147168 0)
(3.13019 0.109672 0)
(3.00214 0.548818 0)
(1.96577 0.95811 0)
(1.07808 0.816822 0)
(1.07516 0.781379 0)
(1.09261 0.781902 0)
(1.12236 0.785667 0)
(1.16504 0.791013 0)
(1.22026 0.790945 0)
(3 1.39082e-16 0)
(3 2.67917e-17 0)
(3 2.63525e-14 0)
(3 1.15229e-13 0)
(3 2.1624e-12 0)
(3 1.47198e-11 0)
(3 -5.37308e-11 0)
(3 7.972e-10 0)
(3 1.73558e-10 0)
(3 3.48521e-08 0)
(3 3.74001e-07 0)
(3 -3.19596e-07 0)
(3.00001 1.32101e-05 0)
(3.00004 3.16673e-05 0)
(3.00048 0.000301408 0)
(3.00312 0.00748365 0)
(3.0411 -0.0600792 0)
(3.08654 0.331709 0)
(2.54733 1.00118 0)
(1.28746 0.891866 0)
(1.12602 0.83728 0)
(1.12952 0.797706 0)
(1.15365 0.793 0)
(1.19353 0.79145 0)
(1.24415 0.788288 0)
(3 6.30585e-17 0)
(3 7.48775e-16 0)
(3 6.26629e-15 0)
(3 4.53859e-15 0)
(3 3.69411e-13 0)
(3 1.99972e-12 0)
(3 1.58112e-11 0)
(3 1.49875e-10 0)
(3 1.17648e-09 0)
(3 9.4872e-09 0)
(3 7.56055e-08 0)
(3 5.62913e-07 0)
(2.99998 5.29621e-06 0)
(3.00021 4.27528e-05 0)
(2.99901 0.000372337 0)
(3.00823 0.00302568 0)
(2.9797 0.0253224 0)
(3.20055 0.192142 0)
(2.95862 0.769059 0)
(1.77388 0.961616 0)
(1.20349 0.86913 0)
(1.17811 0.817903 0)
(1.19231 0.808003 0)
(1.2224 0.798091 0)
(1.26685 0.789683 0)
(3 2.79425e-16 0)
(3 7.00766e-16 0)
(3 3.60585e-15 0)
(3 2.05088e-14 0)
(3 1.65672e-13 0)
(3 4.68221e-14 0)
(3 2.23437e-11 0)
(3 -1.3251e-10 0)
(3 1.09572e-09 0)
(3 -1.04834e-08 0)
(3 6.27364e-08 0)
(3 6.81538e-07 0)
(3 -5.93605e-07 0)
(3.00001 1.88079e-05 0)
(3.00006 2.02953e-05 0)
(3.00083 0.000508151 0)
(3.00465 0.011875 0)
(3.06359 -0.106037 0)
(3.11219 0.513528 0)
(2.38747 1.04875 0)
(1.30634 0.90674 0)
(1.23217 0.876316 0)
(1.23115 0.821896 0)
(1.25366 0.804538 0)
(1.2907 0.791453 0)
(3 -5.78309e-17 0)
(3 -2.44337e-16 0)
(3 2.37534e-16 0)
(3 1.01593e-14 0)
(3 5.42635e-14 0)
(3 3.50406e-13 0)
(3 3.64189e-12 0)
(3 2.79796e-11 0)
(3 1.32056e-10 0)
(3 2.02218e-09 0)
(3 1.38326e-08 0)
(3 1.23552e-07 0)
(3 9.63761e-07 0)
(3.00002 -1.55578e-05 0)
(3.00005 7.94681e-05 0)
(2.99827 0.00058592 0)
(3.01248 0.00454935 0)
(2.96495 0.0369759 0)
(3.26352 0.28115 0)
(2.96068 0.922219 0)
(1.74185 0.981413 0)
(1.29849 0.911845 0)
(1.27339 0.845937 0)
(1.28904 0.826321 0)
(1.31679 0.80706 0)
(3 3.07701e-17 0)
(3 -3.52939e-16 0)
(3 8.34449e-16 0)
(3 -5.52178e-15 0)
(3 5.89094e-14 0)
(3 3.97859e-13 0)
(3 4.28833e-12 0)
(3 -3.19443e-14 0)
(3 1.34329e-10 0)
(3 1.34858e-09 0)
(3 -2.28965e-08 0)
(3 1.5133e-07 0)
(3 -3.89312e-08 0)
(3 5.46855e-06 0)
(3.00002 4.58836e-05 0)
(3.00007 5.15123e-05 0)
(3.00125 0.000302108 0)
(3.00494 0.0118195 0)
(3.08995 -0.105313 0)
(3.1658 0.628658 0)
(2.39493 1.05957 0)
(1.39186 0.927361 0)
(1.33032 0.890371 0)
(1.33477 0.831841 0)
(1.35418 0.811933 0)
(3 -8.00134e-17 0)
(3 -2.0788e-16 0)
(3 -1.37525e-16 0)
(3 8.00681e-16 0)
(3 7.53245e-15 0)
(3 1.10113e-13 0)
(3 6.3704e-13 0)
(3 8.25169e-13 0)
(3 4.13086e-11 0)
(3 2.00909e-10 0)
(3 3.57656e-09 0)
(3 5.31275e-09 0)
(3 1.6275e-07 0)
(3 1.32995e-06 0)
(3.00005 1.22875e-05 0)
(3 7.69661e-05 0)
(2.99812 0.000775709 0)
(3.01293 0.00576848 0)
(2.96236 0.0472136 0)
(3.296 0.340838 0)
(2.97404 0.990683 0)
(1.79713 0.99792 0)
(1.4016 0.941013 0)
(1.37314 0.866899 0)
(1.38813 0.843131 0)
(3 -1.98717e-17 0)
(3 2.96066e-16 0)
(3 9.52524e-16 0)
(3 1.21832e-15 0)
(3 6.50641e-15 0)
(3 2.65079e-14 0)
(3 3.3144e-13 0)
(3 1.93223e-12 0)
(3 1.80894e-11 0)
(3 2.70767e-10 0)
(3 -1.54476e-09 0)
(3 1.08479e-08 0)
(3 8.92524e-08 0)
(3 2.03111e-07 0)
(3 7.56944e-06 0)
(3.00002 5.41025e-05 0)
(3.00009 6.311e-05 0)
(3.00148 -0.0001185 0)
(3.00467 0.0118274 0)
(3.11219 -0.0749801 0)
(3.22396 0.68305 0)
(2.46436 1.06295 0)
(1.50641 0.939318 0)
(1.43761 0.90943 0)
(1.42862 0.853364 0)
(3 7.46242e-17 0)
(3 3.75189e-17 0)
(3 -2.79467e-16 0)
(3 -4.42815e-16 0)
(3 1.86285e-15 0)
(3 2.11525e-14 0)
(3 4.80435e-14 0)
(3 1.22488e-12 0)
(3 2.52456e-12 0)
(3 5.73735e-11 0)
(3 4.89387e-10 0)
(3 3.86093e-09 0)
(3 2.69225e-08 0)
(3 2.23773e-07 0)
(3 1.79503e-06 0)
(3.00004 1.39757e-05 0)
(2.99998 9.06692e-05 0)
(2.99806 0.000871018 0)
(3.01428 0.00626703 0)
(2.96518 0.0517386 0)
(3.30973 0.36003 0)
(3.02532 1.01144 0)
(1.92147 1.01484 0)
(1.49913 0.974942 0)
(1.45884 0.895215 0)
(3 -1.88926e-16 0)
(3 -4.35313e-16 0)
(3 -7.4382e-16 0)
(3 -1.50916e-15 0)
(3 -7.54024e-16 0)
(3 9.10926e-16 0)
(3 4.48785e-14 0)
(3 1.99903e-13 0)
(3 2.62603e-12 0)
(3 1.95906e-11 0)
(3 3.87608e-11 0)
(3 1.37341e-09 0)
(3 9.16695e-09 0)
(3 1.07392e-07 0)
(3 -1.26464e-06 0)
(3 8.57583e-06 0)
(3.00002 5.02983e-05 0)
(3.00007 5.95277e-05 0)
(3.00161 -0.00213675 0)
(3.00372 0.0110145 0)
(3.12223 -0.0198712 0)
(3.28531 0.636698 0)
(2.58925 1.03586 0)
(1.62595 0.946717 0)
(1.52323 0.941922 0)
(3 1.38846e-19 0)
(3 -6.56285e-17 0)
(3 -1.31206e-16 0)
(3 7.2576e-17 0)
(3 -1.85193e-16 0)
(3 1.33789e-15 0)
(3 1.15722e-14 0)
(3 1.33599e-13 0)
(3 -7.93476e-13 0)
(3 9.01615e-12 0)
(3 3.76529e-11 0)
(3 2.97113e-10 0)
(3 5.81338e-09 0)
(3 -2.03006e-08 0)
(3 2.45068e-07 0)
(3 1.7018e-06 0)
(3.00003 1.4258e-05 0)
(3.00001 9.39264e-05 0)
(2.99826 0.000865628 0)
(3.01304 0.00591152 0)
(2.97484 0.0493878 0)
(3.30234 0.362617 0)
(3.08976 0.991745 0)
(2.07217 1.03911 0)
(1.5936 0.980859 0)
(3 -5.83881e-17 0)
(3 -1.29674e-16 0)
(3 -4.20421e-16 0)
(3 -7.39175e-16 0)
(3 -1.07822e-15 0)
(3 4.98713e-17 0)
(3 5.67786e-15 0)
(3 9.53003e-15 0)
(3 2.82977e-13 0)
(3 2.07265e-12 0)
(3 1.77534e-11 0)
(3 1.56218e-10 0)
(3 9.63551e-10 0)
(3 1.18416e-08 0)
(3 7.53679e-08 0)
(3 5.78717e-07 0)
(3 7.02408e-06 0)
(3.00004 3.94847e-05 0)
(3.00002 -2.91523e-06 0)
(3.00172 -0.00580857 0)
(3.00249 0.0110752 0)
(3.11893 0.0149889 0)
(3.31615 0.584566 0)
(2.73608 1.04453 0)
(1.7843 0.968307 0)
(3 -1.15802e-16 0)
(3 -9.22979e-17 0)
(3 -1.65573e-16 0)
(3 -2.35558e-16 0)
(3 -1.39043e-16 0)
(3 6.93291e-16 0)
(3 9.58593e-16 0)
(3 1.71996e-14 0)
(3 7.10286e-15 0)
(3 5.80595e-13 0)
(3 4.1487e-12 0)
(3 5.50621e-11 0)
(3 1.25136e-10 0)
(3 3.29235e-09 0)
(3 -6.03884e-09 0)
(3 2.18936e-07 0)
(3 6.40901e-08 0)
(3.00001 8.97334e-06 0)
(3.00009 7.99629e-05 0)
(2.99884 0.000722366 0)
(3.00904 0.00488426 0)
(2.98625 0.0424815 0)
(3.30962 0.314556 0)
(3.17319 0.899338 0)
(2.31975 1.04541 0)
(3 -3.06755e-17 0)
(3 1.36868e-16 0)
(3 6.38101e-17 0)
(3 4.23822e-17 0)
(3 4.84367e-17 0)
(3 -4.3863e-16 0)
(3 5.38891e-16 0)
(3 6.0694e-15 0)
(3 2.53888e-14 0)
(3 -9.57526e-14 0)
(3 3.55328e-12 0)
(3 -2.60011e-11 0)
(3 3.16827e-10 0)
(3 -2.03666e-09 0)
(3 1.01626e-08 0)
(3 2.18043e-08 0)
(3 4.23881e-07 0)
(3 1.25641e-06 0)
(3.00002 2.8053e-05 0)
(3.00005 -9.34786e-05 0)
(3.00114 -0.00150208 0)
(3.00298 0.00832473 0)
(3.09316 0.0655981 0)
(3.42108 0.518803 0)
(3.00297 0.997363 0)
(3 2.16031e-16 0)
(3 4.39976e-16 0)
(3 6.96744e-16 0)
(3 7.78264e-16 0)
(3 8.0563e-16 0)
(3 -1.73134e-16 0)
(3 -4.66774e-17 0)
(3 1.38864e-15 0)
(3 -2.05639e-15 0)
(3 1.21819e-13 0)
(3 8.66576e-13 0)
(3 6.26559e-12 0)
(3 4.51263e-11 0)
(3 6.02544e-11 0)
(3 2.45849e-09 0)
(3 1.98228e-08 0)
(3 1.33567e-07 0)
(3 1.16433e-06 0)
(2.99999 1.00649e-05 0)
(3.00009 6.83029e-05 0)
(2.99968 0.000599782 0)
(3.0016 -0.000361056 0)
(3.00953 0.0398144 0)
(3.18193 -0.137947 0)
(3.30821 0.790516 0)
(3 1.1063e-16 0)
(3 4.22496e-17 0)
(3 2.08888e-16 0)
(3 1.9896e-16 0)
(3 5.0178e-17 0)
(3 -1.82977e-16 0)
(3 9.49095e-17 0)
(3 -4.07316e-16 0)
(3 -8.44382e-15 0)
(3 5.77388e-14 0)
(3 1.97832e-13 0)
(3 3.73002e-12 0)
(3 2.61424e-11 0)
(3 3.34262e-11 0)
(3 4.3868e-10 0)
(3 6.75964e-09 0)
(3 2.31939e-08 0)
(3 3.66575e-07 0)
(3 9.54947e-07 0)
(3.00004 1.43331e-05 0)
(2.99992 6.66352e-05 0)
(3.00196 0.00091784 0)
(2.99804 0.00633018 0)
(2.92342 0.060673 0)
(3.41814 0.400792 0)
(3 6.82154e-17 0)
(3 -9.49048e-17 0)
(3 -1.52687e-16 0)
(3 -1.84851e-16 0)
(3 -3.19351e-16 0)
(3 -3.45493e-16 0)
(3 -4.49889e-16 0)
(3 8.90968e-17 0)
(3 2.49556e-15 0)
(3 8.53014e-15 0)
(3 6.23057e-14 0)
(3 6.66723e-13 0)
(3 3.53866e-12 0)
(3 4.57641e-11 0)
(3 -3.71932e-10 0)
(3 3.48471e-09 0)
(3 -8.30446e-09 0)
(3 1.60298e-07 0)
(3 3.24417e-07 0)
(3 6.43384e-06 0)
(3.00001 3.45569e-05 0)
(3.00018 0.000317576 0)
(3.0016 0.00329556 0)
(3.00178 0.00493138 0)
(3.1174 0.0710464 0)
(3 -6.9917e-17 0)
(3 -2.06215e-16 0)
(3 2.97965e-16 0)
(3 8.72951e-16 0)
(3 1.34712e-15 0)
(3 1.57735e-15 0)
(3 1.61729e-15 0)
(3 2.17504e-15 0)
(3 3.77744e-15 0)
(3 4.39846e-15 0)
(3 2.13288e-14 0)
(3 1.75495e-13 0)
(3 1.68594e-12 0)
(3 5.8602e-12 0)
(3 7.76611e-11 0)
(3 2.61932e-10 0)
(3 3.50717e-09 0)
(3 2.69198e-08 0)
(3 2.07479e-07 0)
(3 1.51185e-06 0)
(3 1.18482e-05 0)
(3.00002 9.22282e-06 0)
(3.00065 0.00199548 0)
(3.00165 0.000775692 0)
(3.00679 0.0434844 0)
(3 -4.16869e-17 0)
(3 -4.55197e-17 0)
(3 -4.39115e-17 0)
(3 5.56636e-17 0)
(3 9.01952e-17 0)
(3 3.0957e-16 0)
(3 3.64742e-16 0)
(3 1.14071e-15 0)
(3 1.53392e-15 0)
(3 2.48789e-15 0)
(3 1.37028e-15 0)
(3 6.31029e-14 0)
(3 2.58175e-13 0)
(3 1.77518e-12 0)
(3 1.61829e-11 0)
(3 1.73248e-10 0)
(3 8.18242e-10 0)
(3 1.16635e-08 0)
(3 2.86376e-08 0)
(3 6.23032e-07 0)
(3.00001 2.93868e-06 0)
(2.99992 2.44438e-05 0)
(3.00101 0.000219887 0)
(3.00042 -0.000727173 0)
(2.99966 0.00849069 0)
(3 1.41791e-16 0)
(3 4.26954e-16 0)
(3 6.35424e-16 0)
(3 6.04551e-16 0)
(3 3.19847e-16 0)
(3 5.60462e-16 0)
(3 9.46431e-16 0)
(3 4.25281e-16 0)
(3 -2.42567e-16 0)
(3 -5.66871e-16 0)
(3 -3.87937e-15 0)
(3 5.87282e-15 0)
(3 1.45917e-13 0)
(3 9.41716e-13 0)
(3 8.87515e-12 0)
(3 5.49258e-11 0)
(3 7.97339e-10 0)
(3 -3.1062e-10 0)
(3 1.902e-08 0)
(3 1.56507e-07 0)
(3 1.91516e-06 0)
(3 7.85712e-06 0)
(3.00011 0.000161652 0)
(2.99985 0.000536688 0)
(3.00332 0.00253966 0)
(3 -2.80625e-17 0)
(3 -8.4969e-17 0)
(3 -1.70998e-16 0)
(3 -4.36548e-16 0)
(3 -5.3493e-16 0)
(3 -5.60889e-16 0)
(3 -5.9222e-16 0)
(3 -8.45753e-16 0)
(3 -1.02973e-15 0)
(3 -1.10477e-15 0)
(3 -2.94979e-15 0)
(3 7.2511e-15 0)
(3 3.03633e-14 0)
(3 -1.31408e-13 0)
(3 2.61212e-12 0)
(3 1.33515e-11 0)
(3 1.29327e-10 0)
(3 8.35758e-10 0)
(3 6.23146e-09 0)
(3 4.52032e-08 0)
(3 3.36856e-07 0)
(3 1.7491e-06 0)
(3.00005 1.86566e-05 0)
(3.00002 7.73308e-05 0)
(3.00036 -8.19536e-05 0)
(3 -4.77402e-17 0)
(3 -2.60479e-16 0)
(3 -4.41841e-16 0)
(3 -8.84319e-16 0)
(3 -1.06702e-15 0)
(3 -1.03912e-15 0)
(3 -1.00999e-15 0)
(3 -6.41774e-16 0)
(3 -6.11857e-16 0)
(3 -7.19814e-16 0)
(3 -6.22486e-16 0)
(3 1.70507e-15 0)
(3 5.99361e-15 0)
(3 5.61315e-14 0)
(3 6.2943e-13 0)
(3 3.55706e-12 0)
(3 4.4253e-11 0)
(3 1.84762e-10 0)
(3 3.03416e-09 0)
(3 1.0484e-08 0)
(3 1.24823e-07 0)
(3 7.47633e-07 0)
(3 6.71861e-06 0)
(3.00005 2.86179e-05 0)
(2.99968 0.000149917 0)
(3 9.30165e-17 0)
(3 2.93517e-16 0)
(3 7.54271e-17 0)
(3 1.47699e-16 0)
(3 -2.43379e-17 0)
(3 -2.21501e-16 0)
(3 -7.1398e-16 0)
(3 -1.53058e-15 0)
(3 -2.06484e-15 0)
(3 -1.33494e-15 0)
(3 -3.44495e-16 0)
(3 6.90185e-16 0)
(3 1.71142e-15 0)
(3 1.0701e-14 0)
(3 1.86801e-13 0)
(3 4.4098e-13 0)
(3 1.16751e-11 0)
(3 5.59272e-11 0)
(3 5.7622e-10 0)
(3 2.67157e-09 0)
(3 2.71598e-08 0)
(3 1.07463e-07 0)
(3 -9.1984e-07 0)
(3 9.11331e-06 0)
(3.00002 9.37496e-06 0)
(3 -1.89485e-16 0)
(3 -3.72147e-16 0)
(3 -4.98901e-16 0)
(3 -5.77772e-16 0)
(3 -5.60177e-16 0)
(3 -7.90178e-16 0)
(3 -7.53868e-16 0)
(3 -9.91477e-16 0)
(3 -9.57555e-16 0)
(3 -6.59661e-16 0)
(3 -4.14502e-16 0)
(3 8.30108e-16 0)
(3 1.78161e-15 0)
(3 7.05156e-15 0)
(3 8.5486e-14 0)
(3 6.40374e-13 0)
(3 8.27625e-12 0)
(3 -1.63046e-11 0)
(3 1.15907e-10 0)
(3 2.58871e-10 0)
(3 9.58749e-09 0)
(3 -1.63864e-08 0)
(3 3.28184e-07 0)
(3 8.35037e-07 0)
(3.00002 7.5244e-06 0)
(3 -1.03274e-16 0)
(3 -2.12982e-16 0)
(3 -1.837e-16 0)
(3 -1.73639e-16 0)
(3 -2.5068e-16 0)
(3 -3.5143e-17 0)
(3 3.11013e-16 0)
(3 9.789e-16 0)
(3 1.28516e-15 0)
(3 8.68499e-16 0)
(3 4.33777e-16 0)
(3 4.07375e-16 0)
(3 6.14747e-16 0)
(3 -1.5325e-15 0)
(3 3.84134e-14 0)
(3 -2.50065e-13 0)
(3 -7.46512e-13 0)
(3 1.1329e-11 0)
(3 -1.65181e-11 0)
(3 1.3576e-10 0)
(3 1.8287e-09 0)
(3 -1.44851e-08 0)
(3 1.29221e-07 0)
(3 -6.2979e-07 0)
(3.00001 4.18456e-06 0)
(3 9.01757e-17 0)
(3 3.83954e-17 0)
(3 4.37529e-17 0)
(3 1.68257e-18 0)
(3 2.08322e-17 0)
(3 3.70164e-18 0)
(3 -2.06111e-16 0)
(3 -2.24851e-16 0)
(3 -3.22248e-16 0)
(3 -9.44847e-16 0)
(3 -1.12412e-15 0)
(3 -1.73646e-15 0)
(3 -7.71109e-16 0)
(3 -4.86787e-15 0)
(3 -7.70357e-15 0)
(3 -2.02427e-13 0)
(3 -1.50997e-12 0)
(3 1.47168e-11 0)
(3 -1.6319e-10 0)
(3 4.52503e-10 0)
(3 -7.45138e-09 0)
(3 -2.40544e-08 0)
(3 3.27183e-08 0)
(3 -7.52303e-07 0)
(3.00001 1.9706e-06 0)
(3 5.13189e-17 0)
(3 1.46689e-16 0)
(3 6.36808e-17 0)
(3 -1.03759e-17 0)
(3 2.60264e-16 0)
(3 -3.9519e-17 0)
(3 -4.81679e-16 0)
(3 -1.09334e-15 0)
(3 -1.67874e-15 0)
(3 -1.87671e-15 0)
(3 -1.78561e-15 0)
(3 -2.06649e-15 0)
(3 -2.33367e-15 0)
(3 -2.44283e-15 0)
(3 -1.97801e-15 0)
(3 -3.47811e-14 0)
(3 -3.06799e-13 0)
(3 3.30682e-12 0)
(3 -6.39408e-11 0)
(3 1.11351e-11 0)
(3 -3.75699e-09 0)
(3 -1.16801e-08 0)
(3 2.03179e-08 0)
(3.00001 -6.69783e-08 0)
(3 5.47065e-07 0)
(3 5.13189e-17 0)
(3 1.94513e-16 0)
(3 2.95313e-16 0)
(3 4.99385e-17 0)
(3 1.59798e-17 0)
(3 -1.61021e-16 0)
(3 -2.9842e-16 0)
(3 -2.98711e-16 0)
(3 -5.17985e-16 0)
(3 -7.1164e-16 0)
(3 -9.84641e-16 0)
(3 -1.22503e-15 0)
(3 -1.70286e-15 0)
(3 -1.56273e-15 0)
(3 -4.26801e-15 0)
(3 -1.5992e-15 0)
(3 -6.62383e-15 0)
(3 5.66282e-13 0)
(3 -1.03254e-11 0)
(3 2.9957e-12 0)
(3 -3.39567e-10 0)
(3 -1.23445e-09 0)
(3 -1.33585e-09 0)
(3.00001 1.03505e-08 0)
(3.00001 1.30996e-07 0)
(3 -5.13189e-17 0)
(3 -1.74123e-16 0)
(3 -2.95346e-16 0)
(3 -3.22999e-16 0)
(3 -5.80012e-16 0)
(3 -1.43666e-15 0)
(3 -1.7203e-15 0)
(3 -1.7582e-15 0)
(3 -1.52189e-15 0)
(3 -1.31314e-15 0)
(3 -8.63918e-16 0)
(3 -1.92723e-16 0)
(3 4.87914e-16 0)
(3 3.46427e-16 0)
(3 -5.13135e-15 0)
(3 -6.49933e-15 0)
(3 -3.1391e-14 0)
(3 -5.82534e-13 0)
(3 -7.69927e-12 0)
(3 3.97564e-12 0)
(3 -9.68155e-10 0)
(3 -1.71839e-09 0)
(3 6.89271e-09 0)
(3.00001 -4.84143e-08 0)
(3 2.89284e-07 0)
(3 -1.02638e-16 0)
(3 -2.56595e-16 0)
(3 -5.18781e-16 0)
(3 -4.26061e-16 0)
(3 -1.13061e-15 0)
(3 -1.48996e-15 0)
(3 -2.29167e-15 0)
(3 -2.93451e-15 0)
(3 -2.91147e-15 0)
(3 -2.33571e-15 0)
(3 -1.64581e-15 0)
(3 -8.06929e-16 0)
(3 2.32959e-17 0)
(3 -2.36013e-17 0)
(3 -9.00183e-16 0)
(3 2.65749e-15 0)
(3 1.50749e-14 0)
(3 -1.20666e-13 0)
(3 1.06976e-12 0)
(3 -3.77651e-12 0)
(3 3.64239e-10 0)
(3 5.41016e-10 0)
(3 -2.90495e-09 0)
(3.00001 3.34292e-08 0)
(3 -6.26565e-08 0)
(1.10385 1.13673 0)
(0.0365852 0.460555 0)
(-0.747313 -0.0845271 0)
(-0.77245 -0.205568 0)
(-0.794567 -0.167907 0)
(-0.80117 -0.0044376 0)
(-0.918532 0.144587 0)
(-0.965967 0.125543 0)
(-0.938107 0.0673812 0)
(-0.883073 0.0340634 0)
(-0.868591 0.0115299 0)
(-0.941413 -0.0451806 0)
(-1.01359 -0.0242341 0)
(-1.06379 -0.00611246 0)
(-1.10612 -0.0154853 0)
(-1.13847 -0.022712 0)
(-1.16158 -0.0224482 0)
(-1.17919 -0.0198999 0)
(-1.19529 -0.00793574 0)
(-1.24445 0.00273605 0)
(-1.283 0.00950685 0)
(-1.31151 0.0161862 0)
(-1.32931 0.0182355 0)
(-1.33866 0.0184345 0)
(-1.33642 0.0155361 0)
(-1.31389 0.0162888 0)
(-1.28517 0.0151535 0)
(-1.23921 0.0174539 0)
(-1.18012 0.0153668 0)
(-1.11037 0.0187696 0)
(-1.01476 0.00924174 0)
(-0.918738 0.0037101 0)
(-0.817448 -0.00752269 0)
(-0.704321 -0.0274999 0)
(-0.576493 -0.0427005 0)
(-0.440055 -0.0520846 0)
(-0.307966 -0.0438729 0)
(-0.179846 -0.046752 0)
(-0.0525652 -0.0467772 0)
(0.0681479 -0.0377004 0)
(0.168218 -0.0362959 0)
(0.261005 -0.0351896 0)
(0.347218 -0.0336308 0)
(0.425561 -0.0307041 0)
(0.495038 -0.027626 0)
(0.557244 -0.024804 0)
(0.61275 -0.0212976 0)
(0.660604 -0.0171232 0)
(0.70125 -0.0141216 0)
(0.735473 -0.0112006 0)
(0.763681 -0.00856951 0)
(0.786267 -0.00594891 0)
(0.803837 -0.00416969 0)
(0.817614 -0.00314445 0)
(0.82834 -0.00248787 0)
(0.837165 -0.00239427 0)
(0.84441 -0.00224327 0)
(0.850516 -0.00245388 0)
(0.855854 -0.00262293 0)
(0.860383 -0.00275342 0)
(0.864403 -0.00293775 0)
(0.868211 -0.00320675 0)
(0.871723 -0.00337195 0)
(0.875211 -0.00344283 0)
(0.878902 -0.00375541 0)
(0.88307 -0.00419177 0)
(0.887779 -0.00452786 0)
(0.89303 -0.00472568 0)
(0.898813 -0.00497061 0)
(0.90521 -0.00527239 0)
(0.912396 -0.00563577 0)
(0.920522 -0.00599701 0)
(0.929731 -0.00634972 0)
(0.940087 -0.00673785 0)
(0.951611 -0.00706271 0)
(0.964525 -0.00737304 0)
(0.97862 -0.00766109 0)
(0.993692 -0.00785866 0)
(1.0096 -0.00803525 0)
(1.02622 -0.00812725 0)
(1.04339 -0.00809645 0)
(1.06095 -0.00811075 0)
(1.0788 -0.00817085 0)
(1.09679 -0.00808752 0)
(1.11486 -0.00804383 0)
(1.13288 -0.00791639 0)
(1.15083 -0.00793495 0)
(1.16874 -0.00782389 0)
(1.18651 -0.00786832 0)
(1.20423 -0.00761155 0)
(1.22173 -0.00772506 0)
(1.23927 -0.00746685 0)
(1.25638 -0.00759215 0)
(1.27361 -0.00727009 0)
(1.28997 -0.00716626 0)
(1.30646 -0.00670243 0)
(1.32168 -0.00656976 0)
(1.33721 -0.00620492 0)
(1.35075 -0.00635797 0)
(1.36974 -0.00567048 0)
(1.21722 1.02967 0)
(0.985034 0.833733 0)
(0.659152 0.554859 0)
(0.394803 0.293495 0)
(-0.285934 0.0939743 0)
(-0.666049 0.0311498 0)
(-0.793593 -0.00561688 0)
(-0.822003 -0.103843 0)
(-0.82263 -0.158648 0)
(-0.810882 -0.141059 0)
(-0.827054 -0.009043 0)
(-0.89471 0.131232 0)
(-0.961762 0.0826735 0)
(-1.01662 0.0630975 0)
(-1.06004 0.0677968 0)
(-1.08983 0.0644748 0)
(-1.10546 0.0540213 0)
(-1.11082 0.0375055 0)
(-1.1211 0.0204049 0)
(-1.1913 0.0188484 0)
(-1.24394 0.0135676 0)
(-1.28362 0.0141576 0)
(-1.30811 0.0151239 0)
(-1.31974 0.0166056 0)
(-1.31487 0.00897434 0)
(-1.28384 0.017127 0)
(-1.24998 0.0137448 0)
(-1.19461 0.0110473 0)
(-1.11613 0.0057855 0)
(-1.03569 -0.0155412 0)
(-0.924466 -0.0453448 0)
(-0.815946 -0.0592973 0)
(-0.702807 -0.063975 0)
(-0.57639 -0.074702 0)
(-0.436431 -0.0951993 0)
(-0.288593 -0.115381 0)
(-0.156557 -0.127782 0)
(0.000312145 -0.141834 0)
(0.130101 -0.143467 0)
(0.248146 -0.128181 0)
(0.347707 -0.116724 0)
(0.432859 -0.1077 0)
(0.510067 -0.100378 0)
(0.581546 -0.0899554 0)
(0.644489 -0.0794178 0)
(0.699404 -0.0709921 0)
(0.748041 -0.062105 0)
(0.790559 -0.0529176 0)
(0.827624 -0.0442064 0)
(0.860234 -0.0368388 0)
(0.888895 -0.0300943 0)
(0.913328 -0.0241609 0)
(0.933908 -0.0188556 0)
(0.950759 -0.0143546 0)
(0.964809 -0.0111259 0)
(0.976168 -0.00864719 0)
(0.985332 -0.00686417 0)
(0.992052 -0.00540704 0)
(0.997057 -0.0042944 0)
(1.00053 -0.00331434 0)
(1.00251 -0.00294162 0)
(1.00352 -0.00274842 0)
(1.00375 -0.00293867 0)
(1.0036 -0.00326869 0)
(1.00324 -0.00409314 0)
(1.00306 -0.00515553 0)
(1.00356 -0.00611013 0)
(1.0049 -0.00736975 0)
(1.00686 -0.0085484 0)
(1.00955 -0.00965632 0)
(1.01323 -0.0108602 0)
(1.0181 -0.0120967 0)
(1.02427 -0.0134218 0)
(1.03181 -0.0146966 0)
(1.04074 -0.0159291 0)
(1.05125 -0.0170923 0)
(1.06312 -0.018125 0)
(1.07608 -0.018901 0)
(1.08998 -0.0194446 0)