/*--------------------------------*- C++ -*----------------------------------*\
| =========                 |                                                 |
| \\      /  F ield         | OpenFOAM: The Open Source CFD Toolbox           |
|  \\    /   O peration     | Version:  v2106                                 |
|   \\  /    A nd           | Website:  www.openfoam.com                      |
|    \\/     M anipulation  |                                                 |
\*---------------------------------------------------------------------------*/
FoamFile
{
    version     2.0;
    format      ascii;
    arch        "LSB;label=32;scalar=64";
    class       volScalarField;
    location    "15";
    object      Mo;
}
// * * * * * * * * * * * * * * * * * * * * * * * * * * * * * * * * * * * * * //

dimensions      [0 0 0 0 0 0 0];

internalField   nonuniform List<scalar> 
5250
(
3.01265
3.01265
3.01265
3.01265
3.01265
3.01265
3.01265
3.01265
3.01264
3.01238
3.01116
2.99328
2.90132
2.51924
1.53211
0.491191
0.300873
0.34592
0.304885
0.259027
0.225082
0.17841
0.134298
0.0850402
0.038869
3.01265
3.01265
3.01265
3.01265
3.01265
3.01265
3.01265
3.01265
3.01263
3.01242
3.01075
2.99494
2.89607
2.52978
1.54974
0.501423
0.292056
0.343933
0.302151
0.255835
0.223394
0.182962
0.144166
0.101789
0.0742332
3.01265
3.01265
3.01265
3.01265
3.01265
3.01265
3.01265
3.01265
3.01263
3.01245
3.0109
2.99679
2.9027
2.55492
1.59694
0.535614
0.279037
0.346028
0.302753
0.257102
0.229726
0.195395
0.160456
0.131688
0.115814
3.01265
3.01265
3.01265
3.01265
3.01265
3.01265
3.01265
3.01265
3.01263
3.01247
3.0111
2.99882
2.91279
2.59294
1.67937
0.600634
0.262403
0.348609
0.302425
0.264922
0.240588
0.210107
0.186498
0.167389
0.157744
3.01265
3.01265
3.01265
3.01265
3.01265
3.01265
3.01265
3.01265
3.01263
3.01251
3.01136
3.00153
2.9263
2.64592
1.81564
0.704202
0.254319
0.360468
0.311069
0.276184
0.254636
0.233081
0.217399
0.207131
0.204113
3.01265
3.01265
3.01265
3.01265
3.01265
3.01265
3.01265
3.01265
3.01264
3.01254
3.0116
3.00414
2.94078
2.70121
1.96194
0.85452
0.267167
0.385961
0.334343
0.293866
0.276546
0.263554
0.254403
0.252075
0.253609
3.01265
3.01265
3.01265
3.01265
3.01265
3.01265
3.01265
3.01265
3.01264
3.01257
3.01187
3.00621
2.95367
2.74879
2.06282
1.04057
0.30912
0.417455
0.369452
0.321768
0.307306
0.297075
0.296102
0.297612
0.31133
3.01265
3.01265
3.01265
3.01265
3.01265
3.01265
3.01265
3.01265
3.01264
3.0126
3.01205
3.00814
2.96515
2.7933
2.16312
1.21604
0.392467
0.465808
0.421629
0.364844
0.346036
0.3381
0.344958
0.355577
0.383495
3.01265
3.01265
3.01265
3.01265
3.01265
3.01265
3.01265
3.01265
3.01264
3.01262
3.01211
3.00939
2.97399
2.82766
2.26122
1.30933
0.481547
0.516291
0.482771
0.426964
0.39881
0.390601
0.404412
0.417756
0.479033
3.01265
3.01265
3.01265
3.01265
3.01265
3.01265
3.01265
3.01265
3.01264
3.01263
3.01223
3.01032
2.98287
2.86136
2.36619
1.4089
0.556878
0.555407
0.536794
0.499884
0.464639
0.453242
0.472397
0.50912
0.64889
3.01265
3.01265
3.01265
3.01265
3.01265
3.01265
3.01265
3.01265
3.01264
3.01264
3.01233
3.01101
2.99037
2.89252
2.47596
1.53106
0.64764
0.548291
0.57449
0.566888
0.539117
0.529823
0.557627
0.641034
0.871421
3.01265
3.01265
3.01265
3.01265
3.01265
3.01265
3.01265
3.01265
3.01265
3.01263
3.01246
3.01098
2.99839
2.91268
2.59029
1.67228
0.789148
0.53157
0.581311
0.62531
0.615375
0.610322
0.641928
0.752873
0.924284
3.01265
3.01265
3.01265
3.01265
3.01265
3.01265
3.01265
3.01265
3.01265
3.01264
3.01255
3.01168
3.00497
2.94393
2.71643
1.98052
1.01774
0.521402
0.58585
0.629616
0.661798
0.68513
0.714149
0.807986
0.941177
3.01265
3.01265
3.01265
3.01265
3.01265
3.01265
3.01265
3.01265
3.01265
3.01264
3.01259
3.01213
3.00806
2.96656
2.79731
2.20885
1.32645
0.585381
0.616499
0.642122
0.675707
0.72847
0.771644
0.848059
0.961206
3.01265
3.01265
3.01265
3.01265
3.01265
3.01265
3.01265
3.01265
3.01265
3.01264
3.01263
3.0122
3.01011
2.98086
2.8548
2.35643
1.49938
0.732927
0.668259
0.673089
0.696502
0.746041
0.8054
0.885558
0.979552
3.01265
3.01265
3.01265
3.01265
3.01265
3.01265
3.01265
3.01265
3.01265
3.01265
3.01264
3.01237
3.01115
2.9928
2.90298
2.508
1.64735
0.917493
0.717957
0.724215
0.735195
0.771066
0.826575
0.902858
0.990219
3.01265
3.01265
3.01265
3.01265
3.01265
3.01265
3.01265
3.01265
3.01265
3.01265
3.01263
3.01252
3.0115
3.00278
2.93559
2.67769
1.85177
1.17973
0.73593
0.76176
0.776865
0.801559
0.845322
0.910332
0.989915
3.01265
3.01265
3.01265
3.01265
3.01265
3.01265
3.01265
3.01265
3.01265
3.01265
3.01264
3.01262
3.01192
3.009
2.96398
2.8173
2.26025
1.48463
0.825147
0.798859
0.810615
0.830957
0.867141
0.921681
0.991563
3.01265
3.01265
3.01265
3.01265
3.01265
3.01265
3.01265
3.01265
3.01265
3.01265
3.01264
3.01261
3.01231
3.00987
2.98839
2.86705
2.46835
1.68341
1.01634
0.84528
0.852274
0.867972
0.896616
0.940095
0.998674
3.01265
3.01265
3.01265
3.01265
3.01265
3.01265
3.01265
3.01265
3.01265
3.01265
3.01265
3.01262
3.01267
3.01062
3.00753
2.90494
2.69166
1.89919
1.30942
0.886125
0.896702
0.908999
0.930688
0.963939
1.01078
3.01265
3.01265
3.01265
3.01265
3.01265
3.01265
3.01265
3.01265
3.01265
3.01265
3.01265
3.01264
3.01258
3.01204
3.00777
2.97292
2.80864
2.29621
1.60573
1.00243
0.934283
0.940008
0.95778
0.987494
1.02727
3.01265
3.01265
3.01265
3.01265
3.01265
3.01265
3.01265
3.01265
3.01265
3.01265
3.01265
3.01264
3.01258
3.01259
3.00886
3.01175
2.8322
2.61452
1.86765
1.24598
0.985867
0.981098
0.99394
1.01687
1.04948
3.01265
3.01265
3.01265
3.01265
3.01265
3.01265
3.01265
3.01265
3.01265
3.01265
3.01265
3.01265
3.01263
3.01254
3.01168
3.00522
2.95338
2.75719
2.09451
1.56704
1.04144
1.01857
1.02642
1.04478
1.07298
3.01265
3.01265
3.01265
3.01265
3.01265
3.01265
3.01265
3.01265
3.01265
3.01265
3.01265
3.01265
3.01263
3.01256
3.01253
3.00809
3.01217
2.7974
2.55417
1.87195
1.25788
1.07055
1.06419
1.07906
1.10141
3.01265
3.01265
3.01265
3.01265
3.01265
3.01265
3.01265
3.01265
3.01265
3.01265
3.01265
3.01265
3.01265
3.01263
3.0125
3.01134
3.00275
2.9377
2.713
2.0236
1.59342
1.1178
1.10011
1.1107
1.12821
3.01265
3.01265
3.01265
3.01265
3.01265
3.01265
3.01265
3.01265
3.01265
3.01265
3.01265
3.01265
3.01265
3.01264
3.01257
3.01258
3.00727
3.01379
2.77661
2.50771
1.88139
1.3087
1.15874
1.14564
1.15957
3.01265
3.01265
3.01265
3.01265
3.01265
3.01265
3.01265
3.01265
3.01265
3.01265
3.01265
3.01265
3.01265
3.01265
3.01263
3.01248
3.01112
3.00169
2.92998
2.70618
2.04837
1.62649
1.20215
1.18103
1.18682
3.01265
3.01265
3.01265
3.01265
3.01265
3.01265
3.01265
3.01265
3.01265
3.01265
3.01265
3.01265
3.01265
3.01265
3.01265
3.01257
3.01233
3.00726
3.01046
2.77611
2.53903
1.92782
1.38514
1.23372
1.21687
3.01265
3.01265
3.01265
3.01265
3.01265
3.01265
3.01265
3.01265
3.01265
3.01265
3.01265
3.01265
3.01265
3.01265
3.01265
3.01263
3.01248
3.01111
3.00258
2.93089
2.72347
2.10775
1.71624
1.27419
1.25061
3.01265
3.01265
3.01265
3.01265
3.01265
3.01265
3.01265
3.01265
3.01265
3.01265
3.01265
3.01265
3.01265
3.01265
3.01265
3.01264
3.01256
3.01249
3.00807
3.01316
2.80613
2.5823
1.98756
1.47441
1.30011
3.01265
3.01265
3.01265
3.01265
3.01265
3.01265
3.01265
3.01265
3.01265
3.01265
3.01265
3.01265
3.01265
3.01265
3.01265
3.01265
3.01262
3.01257
3.01127
3.00575
2.93988
2.75243
2.19203
1.81822
1.35669
3.01265
3.01265
3.01265
3.01265
3.01265
3.01265
3.01265
3.01265
3.01265
3.01265
3.01265
3.01265
3.01265
3.01265
3.01265
3.01265
3.01265
3.0126
3.01253
3.00965
3.00477
2.85009
2.63037
2.06912
1.59556
3.01265
3.01265
3.01265
3.01265
3.01265
3.01265
3.01265
3.01265
3.01265
3.01265
3.01265
3.01265
3.01265
3.01265
3.01265
3.01265
3.01265
3.01263
3.01257
3.01159
3.00706
2.95339
2.79678
2.34841
1.91565
3.01265
3.01265
3.01265
3.01265
3.01265
3.01265
3.01265
3.01265
3.01265
3.01265
3.01265
3.01265
3.01265
3.01265
3.01265
3.01265
3.01265
3.01265
3.01261
3.01254
3.01029
3.00575
2.88411
2.75649
2.18128
3.01265
3.01265
3.01265
3.01265
3.01265
3.01265
3.01265
3.01265
3.01265
3.01265
3.01265
3.01265
3.01265
3.01265
3.01265
3.01265
3.01265
3.01265
3.01264
3.01256
3.01197
3.0083
2.97447
2.85197
2.58625
3.01265
3.01265
3.01265
3.01265
3.01265
3.01265
3.01265
3.01265
3.01265
3.01265
3.01265
3.01265
3.01265
3.01265
3.01265
3.01265
3.01265
3.01265
3.01265
3.01263
3.01251
3.01149
3.00496
2.94336
2.78077
3.01265
3.01265
3.01265
3.01265
3.01265
3.01265
3.01265
3.01265
3.01265
3.01265
3.01265
3.01265
3.01265
3.01265
3.01265
3.01265
3.01265
3.01265
3.01265
3.01263
3.01256
3.01251
3.00931
3.00717
2.88475
3.01265
3.01265
3.01265
3.01265
3.01265
3.01265
3.01265
3.01265
3.01265
3.01265
3.01265
3.01265
3.01265
3.01265
3.01265
3.01265
3.01265
3.01265
3.01265
3.01265
3.01263
3.01256
3.012
3.00814
2.9951
3.01265
3.01265
3.01265
3.01265
3.01265
3.01265
3.01265
3.01265
3.01265
3.01265
3.01265
3.01265
3.01265
3.01265
3.01265
3.01265
3.01265
3.01265
3.01265
3.01265
3.01265
3.01263
3.01251
3.01176
3.0039
3.01265
3.01265
3.01265
3.01265
3.01265
3.01265
3.01265
3.01265
3.01265
3.01265
3.01265
3.01265
3.01265
3.01265
3.01265
3.01265
3.01265
3.01265
3.01265
3.01265
3.01265
3.01264
3.01259
3.01257
3.01034
3.01265
3.01265
3.01265
3.01265
3.01265
3.01265
3.01265
3.01265
3.01265
3.01265
3.01265
3.01265
3.01265
3.01265
3.01265
3.01265
3.01265
3.01265
3.01265
3.01265
3.01265
3.01265
3.01264
3.01258
3.01284
3.01265
3.01265
3.01265
3.01265
3.01265
3.01265
3.01265
3.01265
3.01265
3.01265
3.01265
3.01265
3.01265
3.01265
3.01265
3.01265
3.01265
3.01265
3.01265
3.01265
3.01265
3.01265
3.01265
3.01263
3.01261
3.01265
3.01265
3.01265
3.01265
3.01265
3.01265
3.01265
3.01265
3.01265
3.01265
3.01265
3.01265
3.01265
3.01265
3.01265
3.01265
3.01265
3.01265
3.01265
3.01265
3.01265
3.01265
3.01265
3.01265
3.01264
3.01265
3.01265
3.01265
3.01265
3.01265
3.01265
3.01265
3.01265
3.01265
3.01265
3.01265
3.01265
3.01265
3.01265
3.01265
3.01265
3.01265
3.01265
3.01265
3.01265
3.01265
3.01265
3.01265
3.01265
3.01265
3.01265
3.01265
3.01265
3.01265
3.01265
3.01265
3.01265
3.01265
3.01265
3.01265
3.01265
3.01265
3.01265
3.01265
3.01265
3.01265
3.01265
3.01265
3.01265
3.01265
3.01265
3.01265
3.01265
3.01265
3.01265
3.01265
3.01265
3.01265
3.01265
3.01265
3.01265
3.01265
3.01265
3.01265
3.01265
3.01265
3.01265
3.01265
3.01265
3.01265
3.01265
3.01265
3.01265
3.01265
3.01265
3.01265
3.01265
3.01265
3.01265
3.01265
3.01265
3.01265
3.01265
3.01265
3.01265
3.01265
3.01265
3.01265
3.01265
3.01265
3.01265
3.01265
3.01265
3.01265
3.01265
3.01265
3.01265
3.01265
3.01265
3.01265
3.01265
3.01265
3.01265
3.01265
3.01265
3.01265
3.01265
3.01265
3.01265
3.01265
3.01265
3.01265
3.01265
3.01265
3.01265
3.01265
3.01265
3.01265
3.01265
3.01265
3.01265
3.01265
3.01265
3.01265
3.01265
3.01265
3.01265
3.01265
3.01265
3.01265
3.01265
3.01265
3.01265
3.01265
3.01265
3.01265
3.01265
3.01265
3.01265
3.01265
3.01265
3.01265
3.01265
3.01265
3.01265
3.01265
3.01265
3.01265
3.01265
3.01265
3.01265
3.01265
3.01265
3.01265
3.01265
3.01265
3.01265
3.01265
3.01265
3.01265
3.01265
3.01265
3.01265
3.01265
3.01265
3.01265
3.01265
3.01265
3.01265
3.01265
3.01265
3.01265
3.01265
3.01265
3.01265
3.01265
3.01265
3.01265
3.01265
3.01265
1.13688
0.567035
0.354095
0.276638
0.371539
0.277858
0.402571
0.595959
0.733042
0.793255
0.806581
0.800641
0.798004
0.81007
0.859069
0.913452
0.952586
0.970685
0.974054
0.968774
0.964804
0.962851
0.9647
0.966793
0.971945
0.97666
0.980001
0.982115
0.982879
0.98063
0.974163
0.957095
0.939367
0.900267
0.85233
0.798518
0.746672
0.693806
0.629099
0.568869
0.512216
0.451478
0.389541
0.328088
0.266778
0.217965
0.182008
0.124222
0.0722157
0.0324317
0.0404839
0.0792061
0.125236
0.166862
0.206597
0.24504
0.280905
0.314041
0.345364
0.375253
0.40352
0.430172
0.455516
0.479725
0.503018
0.525368
0.546662
0.566801
0.586063
0.604548
0.622551
0.640114
0.657368
0.674341
0.690942
0.707277
0.722929
0.738261
0.752709
0.766914
0.780334
0.793562
0.806046
0.818369
0.829987
0.841476
0.852359
0.863129
0.873365
0.883515
0.893242
0.90288
0.912018
0.921039
0.929688
0.938364
0.947279
0.956866
0.965361
0.97345
1.1099
0.944123
0.60678
0.445518
0.13843
0.118111
0.244972
0.447814
0.530553
0.565451
0.528484
0.503944
0.497416
0.530341
0.579719
0.631339
0.663047
0.674187
0.671335
0.6655
0.661687
0.659747
0.66129
0.662689
0.669066
0.67489
0.682113
0.686436
0.689119
0.685422
0.677272
0.656418
0.634844
0.602566
0.552239
0.500075
0.450314
0.396174
0.326875
0.27158
0.219562
0.145252
0.0923473
0.07251
0.125887
0.19084
0.266921
0.333299
0.37731
0.421254
0.460076
0.492951
0.526841
0.556042
0.581719
0.607437
0.630924
0.652992
0.674124
0.694452
0.714206
0.733088
0.7514
0.769101
0.786596
0.803435
0.819885
0.835525
0.850617
0.865148
0.879424
0.893439
0.907334
0.921049
0.934686
0.948098
0.961072
0.973684
0.985716
0.99747
1.00872
1.01977
1.03029
1.04067
1.05048
1.06017
1.06938
1.07843
1.08705
1.09548
1.10365
1.1117
1.11931
1.12686
1.13404
1.14128
1.14875
1.15699
1.16451
1.17182
1.06318
1.08007
0.970693
0.830149
0.599232
0.425408
0.342023
0.392952
0.346889
0.2536
0.147756
0.0431854
0.0319948
0.105472
0.165786
0.307546
0.363049
0.395491
0.393327
0.379864
0.370475
0.365854
0.370816
0.374887
0.385246
0.392137
0.398714
0.397408
0.397875
0.394938
0.39264
0.37535
0.357552
0.321166
0.264408
0.20634
0.151175
0.104829
0.119411
0.184433
0.316201
0.417866
0.495421
0.564517
0.604028
0.636391
0.66802
0.695661
0.712181
0.730151
0.746872
0.763366
0.781718
0.799395
0.815513
0.831595
0.846981
0.862436
0.87748
0.892566
0.907635
0.922593
0.93721
0.951503
0.965589
0.979203
0.99252
1.00544
1.018
1.0303
1.04241
1.05436
1.06626
1.07803
1.08968
1.10114
1.11231
1.12331
1.13407
1.14463
1.15484
1.16481
1.17428
1.18351
1.19224
1.20084
1.2091
1.21722
1.22505
1.2327
1.24021
1.24768
1.25496
1.2618
1.26839
1.27495
1.28169
1.28953
1.29619
1.30341
1.06294
1.15689
1.17684
1.12178
0.989595
0.830856
0.655474
0.633129
0.619289
0.574237
0.496006
0.392452
0.292355
0.265042
0.255695
0.276738
0.244418
0.191293
0.141436
0.0789851
0.0382809
0.00380838
0.0344706
0.0557746
0.0903132
0.105645
0.149952
0.155337
0.173679
0.175036
0.163411
0.141691
0.115403
0.0931661
0.108294
0.181668
0.330537
0.480814
0.603175
0.682268
0.751846
0.79914
0.832366
0.855764
0.873743
0.884485
0.900121
0.914365
0.924672
0.931341
0.940758
0.9499
0.95923
0.96929
0.979587
0.990377
1.00158
1.01247
1.02351
1.03413
1.04485
1.05579
1.0669
1.07806
1.08925
1.10033
1.11148
1.12237
1.13284
1.14316
1.15338
1.16353
1.17373
1.18396
1.19435
1.20462
1.21482
1.22455
1.2339
1.243
1.25201
1.26085
1.26966
1.27825
1.28679
1.29511
1.30328
1.31095
1.31852
1.32557
1.33258
1.33938
1.34619
1.35252
1.35874
1.36507
1.37164
1.37935
1.3865
1.39437
1.08245
1.16675
1.23528
1.2688
1.21367
1.12879
1.03955
0.964443
0.955598
0.901397
0.812605
0.709195
0.604255
0.541171
0.494699
0.486034
0.479897
0.459881
0.422036
0.368419
0.303283
0.258628
0.20955
0.186006
0.151752
0.139554
0.118041
0.0992362
0.0739619
0.0442494
0.0753223
0.115347
0.204632
0.332081
0.479529
0.631875
0.765128
0.874576
0.940109
0.998384
1.03504
1.05585
1.06695
1.07733
1.08158
1.08407
1.08562
1.08731
1.08723
1.08564
1.08694
1.08747
1.0873
1.09071
1.09567
1.10159
1.10757
1.11313
1.11899
1.12545
1.13277
1.14086
1.1496
1.15844
1.16734
1.17643
1.18529
1.19416
1.20293
1.21178
1.22077
1.22998
1.23949
1.24905
1.25859
1.26784
1.27677
1.28544
1.29404
1.30263
1.3112
1.31965
1.32804
1.33624
1.34438
1.35232
1.36016
1.36752
1.37478
1.38165
1.38854
1.39546
1.40227
1.40884
1.41505
1.42132
1.42783
1.43511
1.4429
1.45109
1.09325
1.17686
1.24585
1.30014
1.31523
1.2887
1.25203
1.23595
1.24889
1.23588
1.17038
1.08268
0.980036
0.891741
0.825943
0.797368
0.772606
0.736435
0.687054
0.630717
0.566979
0.51691
0.459922
0.422355
0.373044
0.347013
0.305549
0.294156
0.261593
0.255139
0.282611
0.357743
0.481846
0.653752
0.828658
0.963262
1.06661
1.14896
1.20599
1.25366
1.27517
1.27866
1.27479
1.26692
1.25334
1.23795
1.21997
1.21094
1.20034
1.19037
1.18385
1.17595
1.16726
1.16411
1.16449
1.16733
1.16954
1.17121
1.17351
1.1775
1.18335
1.18948
1.19622
1.20303
1.21018
1.21776
1.22579
1.23381
1.24186
1.25022
1.25878
1.2672
1.27568
1.28427
1.29301
1.30197
1.31076
1.31948
1.32804
1.33613
1.34403
1.35181
1.35965
1.36759
1.37556
1.38347
1.39122
1.3987
1.40602
1.41287
1.41965
1.42644
1.43311
1.43967
1.44584
1.45212
1.45869
1.46587
1.47441
1.4832
1.08373
1.17251
1.24213
1.2983
1.34784
1.35141
1.35317
1.35937
1.37506
1.39789
1.41021
1.36638
1.30874
1.24355
1.18194
1.12533
1.10372
1.06944
1.01933
0.95833
0.887739
0.823974
0.755568
0.706106
0.647559
0.609714
0.555497
0.526454
0.473134
0.458278
0.499761
0.609652
0.770437
0.944461
1.08944
1.20337
1.30071
1.36783
1.4181
1.45495
1.47019
1.46878
1.46024
1.44026
1.41081
1.37244
1.33166
1.29305
1.25237
1.25016
1.24398
1.23392
1.22263
1.21219
1.20168
1.20012
1.20226
1.20422
1.20598
1.20845
1.21216
1.21653
1.22166
1.22763
1.23428
1.24124
1.24844
1.25601
1.26388
1.27173
1.27928
1.28698
1.29502
1.30353
1.31221
1.32091
1.32962
1.33767
1.34546
1.35321
1.36107
1.36895
1.37685
1.38481
1.39279
1.40061
1.40831
1.4154
1.42219
1.42871
1.43529
1.44198
1.44864
1.45535
1.46182
1.46838
1.47521
1.48263
1.49152
1.50078
1.07059
1.15779
1.23474
1.28948
1.34199
1.36668
1.39336
1.41026
1.43383
1.46393
1.49241
1.51194
1.48244
1.45014
1.41317
1.38328
1.37663
1.36917
1.33826
1.29012
1.22744
1.16224
1.08955
1.03011
0.963748
0.912075
0.844379
0.802458
0.735468
0.703878
0.752761
0.862533
1.0079
1.15392
1.27234
1.37819
1.45657
1.5104
1.55408
1.58229
1.59522
1.59611
1.5917
1.57556
1.55136
1.51695
1.46971
1.40624
1.35173
1.29836
1.2588
1.25877
1.2555
1.24922
1.23883
1.2308
1.22261
1.22512
1.22732
1.22941
1.23182
1.23474
1.23907
1.24468
1.25132
1.2577
1.26411
1.27046
1.27718
1.28446
1.29233
1.30035
1.30829
1.3162
1.32392
1.33169
1.33977
1.34781
1.35574
1.36349
1.37119
1.37887
1.38659
1.39439
1.40215
1.40985
1.41744
1.42427
1.43074
1.43721
1.44373
1.45041
1.45721
1.46409
1.47085
1.47764
1.48469
1.49234
1.50158
1.51126
1.06734
1.14131
1.22041
1.28422
1.32505
1.35947
1.39859
1.42224
1.45577
1.49339
1.53208
1.57212
1.57854
1.56667
1.55341
1.54248
1.53915
1.54164
1.54681
1.52303
1.48756
1.44486
1.39767
1.35001
1.29739
1.24452
1.18246
1.1156
1.03479
0.957585
0.983225
1.061
1.17406
1.27852
1.38405
1.47387
1.54527
1.59132
1.63224
1.65512
1.66529
1.67171
1.67165
1.6632
1.65013
1.62517
1.5902
1.54619
1.48735
1.40643
1.34331
1.27585
1.27133
1.27016
1.26676
1.26056
1.25139
1.24306
1.2437
1.24595
1.24905
1.25178
1.2551
1.25896
1.26379
1.26931
1.27536
1.28182
1.28865
1.29577
1.30303
1.31037
1.31747
1.32473
1.33241
1.34023
1.34803
1.35608
1.36379
1.37122
1.37863
1.38617
1.3939
1.40169
1.40949
1.41716
1.42463
1.43138
1.4379
1.44447
1.4511
1.45774
1.46444
1.47121
1.47803
1.48495
1.49215
1.49997
1.50941
1.51929
1.06991
1.13439
1.20326
1.26959
1.31417
1.35027
1.38562
1.41436
1.44857
1.49191
1.53342
1.57501
1.61388
1.61847
1.62072
1.62178
1.62331
1.62781
1.63521
1.64201
1.6358
1.61285
1.58562
1.55529
1.52169
1.48139
1.43629
1.35744
1.27535
1.18979
1.12574
1.18391
1.26196
1.35885
1.44371
1.52403
1.58669
1.62971
1.66325
1.68849
1.70179
1.70907
1.70849
1.7093
1.70539
1.6928
1.67912
1.65453
1.6134
1.55962
1.48788
1.39704
1.32156
1.2646
1.27365
1.2798
1.27694
1.27192
1.2666
1.26258
1.26312
1.26745
1.27172
1.27509
1.27865
1.28273
1.28783
1.29445
1.30149
1.30889
1.31606
1.32297
1.33019
1.33776
1.34572
1.35352
1.36136
1.36847
1.37548
1.3826
1.38987
1.39731
1.40486
1.41239
1.42004
1.42738
1.43445
1.44084
1.44711
1.45345
1.45988
1.46641
1.47307
1.47988
1.48683
1.49394
1.50132
1.50927
1.51873
1.52863
1.07733
1.13458
1.1944
1.2546
1.30101
1.34253
1.37509
1.406
1.44004
1.47828
1.5253
1.56504
1.60838
1.6348
1.64866
1.65672
1.66333
1.67235
1.6826
1.69673
1.70858
1.71075
1.69474
1.6763
1.65337
1.62292
1.57606
1.49238
1.3467
1.22453
1.1995
1.24432
1.30535
1.37443
1.43876
1.49953
1.54995
1.58916
1.62369
1.65112
1.67548
1.69675
1.72064
1.72937
1.72849
1.72782
1.72845
1.71788
1.70078
1.6737
1.6276
1.56353
1.46327
1.3864
1.29679
1.28662
1.29349
1.2979
1.29528
1.29141
1.28759
1.28839
1.28981
1.29195
1.29493
1.29887
1.30412
1.3109
1.31823
1.32569
1.33155
1.33769
1.34413
1.35098
1.35834
1.36597
1.37343
1.38096
1.3882
1.39533
1.40246
1.40956
1.41669
1.42385
1.43117
1.43816
1.44503
1.45161
1.45812
1.46468
1.47124
1.47789
1.48466
1.49153
1.49849
1.50553
1.51281
1.5206
1.52991
1.53953
1.09095
1.1398
1.19324
1.24582
1.29094
1.33437
1.36251
1.39364
1.4276
1.46503
1.5094
1.55355
1.59267
1.62564
1.65434
1.66637
1.67908
1.68844
1.70385
1.71923
1.738
1.75341
1.75728
1.74489
1.72673
1.69527
1.63056
1.51977
1.35489
1.18596
1.21103
1.24819
1.30128
1.35548
1.41205
1.46495
1.51003
1.55109
1.58583
1.61413
1.64404
1.67047
1.69329
1.70735
1.72303
1.74202
1.74987
1.74779
1.75084
1.74156
1.72452
1.69146
1.63902
1.56271
1.45521
1.37394
1.28928
1.29873
1.3102
1.31804
1.31572
1.31105
1.30543
1.30704
1.3102
1.31517
1.3204
1.32633
1.3327
1.33967
1.34658
1.35277
1.35832
1.36402
1.37019
1.37695
1.3838
1.39091
1.3979
1.40482
1.41179
1.41883
1.42592
1.43307
1.44018
1.44705
1.45389
1.46056
1.46715
1.47375
1.48038
1.48708
1.49385
1.50072
1.50767
1.51474
1.52208
1.53
1.53946
1.54946
1.10927
1.15084
1.19743
1.24345
1.28703
1.32981
1.35721
1.38589
1.41665
1.45043
1.48927
1.53185
1.57295
1.6088
1.64306
1.66252
1.67693
1.69113
1.70543
1.72478
1.74256
1.76341
1.78592
1.77528
1.75552
1.70965
1.61444
1.43804
1.30865
1.18499
1.20831
1.24169
1.28689
1.33308
1.38029
1.4252
1.46679
1.50432
1.53689
1.57126
1.60082
1.62797
1.65067
1.67641
1.70389
1.72719
1.74703
1.76049
1.77358
1.77448
1.77715
1.76625
1.74512
1.70398
1.64201
1.551
1.44292
1.33868
1.31692
1.33139
1.343
1.34077
1.33786
1.33445
1.33642
1.34007
1.3466
1.35314
1.35762
1.36187
1.36569
1.37058
1.37649
1.38308
1.38955
1.39603
1.40265
1.40943
1.41609
1.4226
1.42901
1.43534
1.44169
1.44812
1.45472
1.46136
1.46804
1.47457
1.48099
1.48744
1.49393
1.50049
1.50712
1.51381
1.52058
1.52747
1.53467
1.54251
1.55193
1.5621
1.13146
1.16699
1.20645
1.24851
1.28763
1.32785
1.35622
1.38284
1.41163
1.44204
1.47598
1.51401
1.55329
1.59124
1.62237
1.65158
1.6685
1.6824
1.69623
1.71357
1.73782
1.75903
1.78243
1.77179
1.74028
1.66395
1.53008
1.35083
1.18743
1.19513
1.20947
1.23299
1.26588
1.30218
1.34183
1.38152
1.42118
1.45875
1.49368
1.52678
1.55907
1.58692
1.61742
1.64563
1.67666
1.6949
1.71719
1.74371
1.76608
1.78844
1.80292
1.79976
1.79941
1.78683
1.76396
1.71703
1.64411
1.52673
1.43975
1.34192
1.35001
1.36322
1.37444
1.37396
1.37339
1.37387
1.37672
1.3807
1.38541
1.39087
1.39391
1.39749
1.40189
1.4072
1.41351
1.41971
1.42616
1.4324
1.43849
1.44459
1.45077
1.4568
1.46273
1.46872
1.47485
1.4811
1.48745
1.4939
1.50044
1.50707
1.51355
1.51991
1.52621
1.53251
1.53888
1.54541
1.55231
1.55996
1.56936
1.5796
1.15351
1.18636
1.22081
1.25864
1.29409
1.32982
1.35724
1.38266
1.41017
1.43768
1.46728
1.50056
1.53489
1.57108
1.60777
1.63397
1.65808
1.67541
1.68998
1.70615
1.72883
1.75274
1.75831
1.73886
1.68085
1.56535
1.38467
1.22659
1.17409
1.18399
1.19878
1.2195
1.24553
1.27608
1.31025
1.34609
1.38362
1.42005
1.45514
1.48919
1.52247
1.55382
1.58434
1.61568
1.64099
1.66786
1.69606
1.72439
1.74468
1.76619
1.78481
1.80453
1.82361
1.82705
1.82892
1.82022
1.78576
1.72815
1.64288
1.52508
1.42248
1.36789
1.38342
1.39727
1.41224
1.41
1.40878
1.40897
1.41038
1.41417
1.41972
1.42432
1.42776
1.43172
1.43649
1.44267
1.4492
1.45595
1.46229
1.46802
1.47368
1.47931
1.48497
1.49063
1.49639
1.50225
1.50825
1.51445
1.52097
1.5275
1.53408
1.54028
1.54633
1.55234
1.55842
1.56468
1.57138
1.57898
1.58871
1.59912
1.17883
1.20641
1.23715
1.27261
1.30549
1.33703
1.36158
1.38602
1.4099
1.43493
1.46231
1.49206
1.52262
1.55455
1.58872
1.62019
1.64757
1.66593
1.68227
1.70228
1.7202
1.73745
1.72441
1.6811
1.58393
1.41101
1.26763
1.17107
1.17602
1.18392
1.19605
1.21273
1.23368
1.25867
1.2876
1.3198
1.35428
1.3896
1.42462
1.45913
1.49258
1.52473
1.55704
1.58649
1.61635
1.64568
1.67717
1.69791
1.72096
1.74635
1.77144
1.79965
1.8233
1.84258
1.86623
1.86706
1.86156
1.84721
1.80292
1.73395
1.62232
1.52038
1.40699
1.41226
1.42586
1.43959
1.45414
1.45011
1.4467
1.44646
1.44731
1.45126
1.45523
1.45933
1.46394
1.46928
1.4753
1.48187
1.48832
1.49435
1.49945
1.50437
1.50939
1.51459
1.52002
1.52572
1.53165
1.53776
1.54416
1.5505
1.5569
1.56286
1.56843
1.57396
1.57966
1.58562
1.59215
1.59973
1.60973
1.62038
1.20378
1.22766
1.25487
1.28623
1.31918
1.34851
1.37258
1.3923
1.41344
1.4366
1.4614
1.48764
1.5158
1.54547
1.57594
1.6101
1.63408
1.65514
1.67645
1.69589
1.7122
1.70207
1.66757
1.58556
1.4238
1.29995
1.17506
1.17756
1.18161
1.1883
1.19794
1.2109
1.22794
1.24932
1.27506
1.30405
1.33527
1.36788
1.40132
1.43487
1.46838
1.50142
1.5344
1.56352
1.59539
1.62752
1.65239
1.67902
1.70689
1.73329
1.76014
1.78701
1.81289
1.83936
1.86386
1.88557
1.89776
1.90668
1.89356
1.86598
1.81512
1.73763
1.61871
1.53308
1.43975
1.4495
1.46903
1.48313
1.48921
1.48617
1.48392
1.48486
1.48661
1.49127
1.49646
1.50197
1.50679
1.51165
1.51686
1.52205
1.52706
1.53147
1.53588
1.54051
1.54544
1.55067
1.55624
1.56212
1.56832
1.5745
1.58063
1.58644
1.59211
1.59767
1.60335
1.6093
1.61581
1.6234
1.63357
1.64437
1.23108
1.25115
1.27501
1.30251
1.33304
1.35983
1.3857
1.40112
1.41966
1.44109
1.46343
1.48672
1.51152
1.53889
1.57007
1.60215
1.62633
1.6484
1.66906
1.68849
1.68036
1.65157
1.57886
1.4259
1.30099
1.17576
1.17928
1.18435
1.19007
1.19723
1.20595
1.21719
1.23167
1.25018
1.27202
1.29735
1.32507
1.35493
1.38635
1.41893
1.45186
1.48468
1.51541
1.54864
1.58114
1.60873
1.63921
1.66917
1.69604
1.72364
1.75177
1.77807
1.8058
1.83099
1.85857
1.88519
1.90975
1.93532
1.93458
1.93434
1.92435
1.88692
1.82543
1.73445
1.61661
1.50521
1.47996
1.4899
1.50467
1.52354
1.52171
1.52009
1.52045
1.52215
1.52445
1.53032
1.53561
1.541
1.54453
1.54843
1.55272
1.55735
1.56241
1.56722
1.57232
1.57767
1.58283
1.58813
1.594
1.59994
1.60595
1.61176
1.6173
1.62284
1.62849
1.63439
1.64088
1.64849
1.6588
1.66988
1.25169
1.27147
1.29384
1.31792
1.34751
1.37373
1.40102
1.41436
1.42954
1.44813
1.46956
1.48919
1.51064
1.53474
1.56408
1.59452
1.62226
1.64763
1.67006
1.66497
1.63973
1.57245
1.43498
1.2953
1.16493
1.17007
1.17913
1.18916
1.19926
1.20714
1.2158
1.22598
1.23851
1.2541
1.27307
1.29561
1.32104
1.34929
1.37932
1.41028
1.4415
1.4726
1.50631
1.54019
1.56951
1.60066
1.63203
1.66154
1.69031
1.71842
1.74587
1.7737
1.79944
1.82649
1.85361
1.88126
1.90745
1.93015
1.95214
1.97505
1.97121
1.96644
1.93817
1.89415
1.82448
1.70614
1.61676
1.5109
1.5225
1.53594
1.5465
1.55811
1.55485
1.55277
1.55232
1.55422
1.55979
1.56513
1.57103
1.57484
1.57892
1.58334
1.58851
1.59267
1.59703
1.60173
1.60656
1.61158
1.61732
1.62374
1.62993
1.63631
1.64206
1.64772
1.65344
1.6594
1.66596
1.67366
1.68414
1.69555
1.27954
1.29571
1.31525
1.33546
1.36212
1.3888
1.41442
1.43284
1.44312
1.45854
1.47765
1.49603
1.51351
1.53458
1.55992
1.58702
1.618
1.64728
1.65136
1.62972
1.57006
1.45643
1.29685
1.15
1.15494
1.16466
1.18075
1.19457
1.20815
1.21748
1.22734
1.23817
1.2506
1.26518
1.28245
1.30261
1.32547
1.35086
1.37814
1.40673
1.43674
1.46861
1.50102
1.53233
1.56513
1.59782
1.62741
1.65598
1.68544
1.71509
1.74183
1.7691
1.79586
1.82323
1.85055
1.87634
1.9016
1.92584
1.95138
1.97134
1.99381
1.99761
1.99577
1.98773
1.95909
1.90601
1.82975
1.71465
1.62672
1.54374
1.54738
1.56527
1.57571
1.58704
1.58507
1.58554
1.58729
1.59071
1.59644
1.60225
1.60831
1.61179
1.61519
1.61869
1.62154
1.6253
1.62987
1.63524
1.64139
1.6478
1.65433
1.66104
1.66696
1.67275
1.67857
1.68457
1.69117
1.69894
1.70954
1.72115
1.32067
1.30747
1.3268
1.34744
1.3718
1.4019
1.42733
1.45473
1.46054
1.47216
1.48808
1.50715
1.52091
1.53795
1.55993
1.58747
1.61353
1.63628
1.61792
1.56629
1.46257
1.30175
1.146
1.13832
1.1499
1.16918
1.18646
1.20314
1.21668
1.23003
1.24206
1.25428
1.26709
1.28097
1.29657
1.3143
1.33467
1.35732
1.38272
1.40999
1.43961
1.47051
1.50001
1.53144
1.56297
1.59537
1.6242
1.65406
1.68427
1.71183
1.73889
1.7647
1.79134
1.81788
1.84519
1.8712
1.89695
1.9212
1.94418
1.96559
1.98945
2.01341
2.02221
2.02728
2.02698
2.01374
1.97377
1.91108
1.80958
1.69757
1.58281
1.57977
1.58513
1.5974
1.61423
1.61775
1.61747
1.61867
1.62017
1.62459
1.62931
1.63464
1.63847
1.64105
1.64432
1.64775
1.65227
1.65791
1.66463
1.67167
1.67842
1.68524
1.69128
1.69727
1.70338
1.70964
1.71643
1.72438
1.73523
1.74711
1.38125
1.34425
1.34368
1.3608
1.3816
1.41101
1.43758
1.46608
1.47854
1.4875
1.50209
1.52115
1.53537
1.54718
1.56739
1.58729
1.6122
1.60132
1.55967
1.46606
1.30672
1.1496
1.11635
1.13638
1.1574
1.18004
1.195
1.2107
1.22731
1.24305
1.25732
1.27073
1.28441
1.29874
1.31423
1.33133
1.35038
1.37163
1.39495
1.42038
1.44741
1.47583
1.5055
1.53629
1.56741
1.59888
1.62975
1.65862
1.68756
1.71343
1.73976
1.76554
1.79127
1.81735
1.84402
1.86941
1.89475
1.9197
1.94149
1.96414
1.98288
2.00357
2.02186
2.04111
2.06321
2.06128
2.05064
2.0278
1.98764
1.90931
1.78262
1.692
1.59971
1.60928
1.62579
1.63554
1.646
1.64536
1.64559
1.64641
1.6499
1.65425
1.6594
1.66395
1.667
1.67057
1.67447
1.6796
1.6863
1.69381
1.70104
1.70838
1.71462
1.7208
1.72693
1.73337
1.74037
1.7485
1.75952
1.77178
1.48275
1.3891
1.36879
1.38165
1.39739
1.4205
1.44701
1.47156
1.49398
1.50081
1.51456
1.53217
1.55338
1.56254
1.57921
1.5955
1.58746
1.55084
1.4659
1.30999
1.15978
1.10401
1.12606
1.14908
1.17355
1.18964
1.20663
1.22429
1.24277
1.26058
1.27743
1.29421
1.30979
1.32558
1.34169
1.35856
1.37659
1.39606
1.41711
1.43985
1.4641
1.48987
1.51666
1.54452
1.57331
1.60228
1.63186
1.66041
1.68838
1.71445
1.7394
1.76402
1.78951
1.81509
1.84123
1.86682
1.8918
1.91662
1.93742
1.95873
1.97739
1.99701
2.01421
2.03425
2.05661
2.07455
2.09061
2.08894
2.08509
2.04546
1.986
1.89833
1.77481
1.66645
1.63314
1.63637
1.65282
1.66524
1.67749
1.67723
1.67752
1.67911
1.6828
1.68696
1.69082
1.69451
1.69874
1.70392
1.71023
1.71829
1.72573
1.7334
1.73942
1.74527
1.7512
1.75749
1.76444
1.77264
1.7837
1.7965
1.80249
1.43923
1.40959
1.39708
1.4095
1.42632
1.45234
1.47595
1.5055
1.51399
1.526
1.5425
1.56044
1.57823
1.59321
1.5834
1.54683
1.46661
1.31286
1.17978
1.09326
1.11696
1.14263
1.16871
1.18663
1.20526
1.22446
1.24405
1.26348
1.2831
1.30183
1.31976
1.33694
1.35319
1.3694
1.38569
1.40254
1.4202
1.43901
1.45906
1.48051
1.50325
1.52741
1.55265
1.57909
1.60622
1.63394
1.66141
1.68828
1.71429
1.73875
1.76279
1.78786
1.81329
1.83979
1.86552