/*--------------------------------*- C++ -*----------------------------------*\
| =========                 |                                                 |
| \\      /  F ield         | OpenFOAM: The Open Source CFD Toolbox           |
|  \\    /   O peration     | Version:  v2106                                 |
|   \\  /    A nd           | Website:  www.openfoam.com                      |
|    \\/     M anipulation  |                                                 |
\*---------------------------------------------------------------------------*/
FoamFile
{
    version     2.0;
    format      ascii;
    arch        "LSB;label=32;scalar=64";
    class       volScalarField;
    location    "15";
    object      p;
}
// * * * * * * * * * * * * * * * * * * * * * * * * * * * * * * * * * * * * * //

dimensions      [1 -1 -2 0 0 0 0];

internalField   nonuniform List<scalar> 
5250
(
1
1
1
1
1
1
1
1
1.00002
1.00009
1.00118
1.00843
1.09103
1.61611
3.83696
10.1356
11.8133
10.9739
11.3447
11.5807
11.6792
11.845
11.9635
12.0535
12.1035
1
1
1
1
1
1
1
1
1.00001
1.00012
1.0011
1.00933
1.08645
1.5977
3.77565
10.0295
11.859
10.9443
11.3353
11.5687
11.6726
11.8368
11.9479
12.0407
12.0896
1
1
1
1
1
1
1
1
1.00001
1.00011
1.00099
1.00857
1.0776
1.56033
3.63744
9.76779
11.953
10.87
11.2842
11.5181
11.612
11.7668
11.8777
11.9622
12.004
1
1
1
1
1
1
1
1
1.00001
1.0001
1.00086
1.00757
1.06777
1.5061
3.42514
9.35443
12.0949
10.7967
11.2493
11.4548
11.5481
11.6876
11.8016
11.8678
11.9102
1
1
1
1
1
1
1
1
1.00001
1.00008
1.0007
1.00631
1.05464
1.43361
3.13086
8.78424
12.2897
10.6737
11.1715
11.3531
11.4508
11.5784
11.6569
11.7344
11.7712
1
1
1
1
1
1
1
1
1.00001
1.00006
1.00054
1.0051
1.04203
1.35715
2.82001
8.00984
12.5176
10.5754
11.0805
11.2729
11.3554
11.435
11.5377
11.5607
11.5797
1
1
1
1
1
1
1
1
1.00001
1.00005
1.00041
1.00382
1.03176
1.29055
2.54506
7.17409
12.5607
10.481
10.9633
11.1405
11.2125
11.2392
11.3
11.3363
11.3427
1
1
1
1
1
1
1
1
1
1.00004
1.00027
1.00283
1.02349
1.23129
2.28469
6.36512
12.3728
10.5002
10.8346
11.0218
11.0695
11.0865
11.0677
11.0967
10.9525
1
1
1
1
1
1
1
1
1
1.00003
1.00019
1.00241
1.01796
1.18469
2.07566
5.6022
11.6868
10.5181
10.6841
10.8126
10.8498
10.8112
10.6878
10.6439
10.4015
1
1
1
1
1
1
1
1
1
1.00003
1.00013
1.00184
1.01315
1.14046
1.86826
4.84775
10.7813
10.4881
10.5352
10.6105
10.6045
10.5476
10.2553
10.3118
9.36711
1
1
1
1
1
1
1
1
1
1.00002
1.0001
1.00138
1.00946
1.10401
1.68021
4.1073
9.76042
10.5796
10.3612
10.2417
10.2564
10.1808
9.6457
9.32153
6.84201
1
1
1
1
1
1
1
1
1
1.00001
1.0001
1.00091
1.00816
1.07012
1.50784
3.43642
8.56966
10.6133
10.1089
9.9181
9.88831
9.769
9.04773
8.49344
6.55721
1
1
1
1
1
1
1
1
1
1.00001
1.00006
1.00051
1.00473
1.03795
1.33939
2.74345
7.26686
10.6508
9.75179
9.67092
9.55865
9.38706
8.7507
8.02519
6.66099
1
1
1
1
1
1
1
1
1
1
1.00003
1.00029
1.00253
1.02294
1.22574
2.26361
5.99717
10.5026
9.59926
9.45481
9.3153
9.07773
8.51048
7.79091
6.64701
1
1
1
1
1
1
1
1
1
1
1.00003
1.00015
1.00197
1.01434
1.15054
1.91212
4.92655
9.60286
9.54508
9.29771
9.0892
8.81585
8.28463
7.59287
6.62591
1
1
1
1
1
1
1
1
1
1
1.00002
1.00009
1.00124
1.00859
1.09299
1.61783
3.89286
8.27331
9.48795
9.11119
8.83046
8.52107
8.05733
7.44438
6.62046
1
1
1
1
1
1
1
1
1
1
1.00001
1.00007
1.00065
1.00562
1.04842
1.3861
2.95529
6.8156
9.36905
8.90112
8.60985
8.32156
7.90161
7.34583
6.62102
1
1
1
1
1
1
1
1
1
1
1
1.00004
1.00023
1.00317
1.02129
1.22853
2.20456
5.35759
8.9349
8.80412
8.50559
8.19956
7.78912
7.27011
6.62177
1
1
1
1
1
1
1
1
1
1
1
1.00002
1.00019
1.00165
1.01368
1.11917
1.762
4.1839
7.93972
8.80101
8.44125
8.06557
7.65951
7.17868
6.60045
1
1
1
1
1
1
1
1
1
1
1
0.999998
1.00013
1.00029
1.00791
1.03931
1.48433
3.08706
6.46311
8.60015
8.24235
7.91346
7.55073
7.12007
6.59198
1
1
1
1
1
1
1
1
1
1
1
1
1.00004
1.00035
1.00297
1.02413
1.19654
2.14306
4.9343
7.97216
8.12452
7.84513
7.49319
7.0823
6.59373
1
1
1
1
1
1
1
1
1
1
1
1
1.00004
1.00025
0.999972
1.01457
1.04132
1.758
3.69389
6.82289
8.14304
7.82452
7.47241
7.072
6.6087
1
1
1
1
1
1
1
1
1
1
1
1
1.00001
1.00007
1.00054
1.00472
1.03651
1.29288
2.55601
5.4124
7.80263
7.68141
7.40404
7.03986
6.60504
1
1
1
1
1
1
1
1
1
1
1
1
1
1.00007
1.00034
1.0001
1.01707
1.0398
1.90326
4.09132
6.91311
7.73432
7.41885
7.05039
6.62816
1
1
1
1
1
1
1
1
1
1
1
1
1
1.00001
1.0001
1.00074
1.00637
1.04913
1.37327
2.83118
5.53854
7.521
7.31811
7.00787
6.62812
1
1
1
1
1
1
1
1
1
1
1
1
1
1.00001
1.00006
1.00033
0.999822
1.02033
1.0457
1.98127
4.21285
6.76607
7.3568
7.02642
6.6588
1
1
1
1
1
1
1
1
1
1
1
1
1
1
1.00001
1.00012
1.00086
1.00743
1.05457
1.41334
2.89959
5.3922
7.11047
6.92614
6.6335
1
1
1
1
1
1
1
1
1
1
1
1
1
1
1.00001
1.00003
1.00028
1.00142
1.02425
1.0426
1.9391
4.02862
6.3499
6.94325
6.65317
1
1
1
1
1
1
1
1
1
1
1
1
1
1
1
1.00001
1.00011
1.00085
1.00749
1.05076
1.40351
2.7868
5.0572
6.68462
6.56353
1
1
1
1
1
1
1
1
1
1
1
1
1
1
1
1.00001
1.00004
1.00041
1.00055
1.01753
1.03429
1.81729
3.729
5.92895
6.61867
1
1
1
1
1
1
1
1
1
1
1
1
1
1
1
1
1.00001
1.00011
1.00058
1.00632
1.04053
1.35208
2.57246
4.68743
6.32584
1
1
1
1
1
1
1
1
1
1
1
1
1
1
1
1
1
1.00002
1.00021
1.00092
1.0129
1.05939
1.73056
3.35696
5.3874
1
1
1
1
1
1
1
1
1
1
1
1
1
1
1
1
1
1.00001
1.00008
1.00048
1.00494
1.03211
1.28748
2.29437
4.17305
1
1
1
1
1
1
1
1
1
1
1
1
1
1
1
1
1
1
1.00001
1.00017
1.00081
1.01055
1.04939
1.59136
2.87804
1
1
1
1
1
1
1
1
1
1
1
1
1
1
1
1
1
1
1.00001
1.00006
1.00044
1.00343
1.02207
1.19056
1.96459
1
1
1
1
1
1
1
1
1
1
1
1
1
1
1
1
1
1
1
1.00001
1.00009
1.0006
1.00584
1.03889
1.34649
1
1
1
1
1
1
1
1
1
1
1
1
1
1
1
1
1
1
1
1
1.00007
1.00037
1.00003
1.01272
1.0551
1
1
1
1
1
1
1
1
1
1
1
1
1
1
1
1
1
1
1
1
1.00001
1.00007
1.00045
1.00304
1.02281
1
1
1
1
1
1
1
1
1
1
1
1
1
1
1
1
1
1
1
1
1
1.00002
1.00011
1.00079
1.00416
1
1
1
1
1
1
1
1
1
1
1
1
1
1
1
1
1
1
1
1
1
1
1.00003
1.0003
1.00093
1
1
1
1
1
1
1
1
1
1
1
1
1
1
1
1
1
1
1
1
1
1
1
1.00005
1.00027
1
1
1
1
1
1
1
1
1
1
1
1
1
1
1
1
1
1
1
1
1
1
1
1.00002
1.0001
1
1
1
1
1
1
1
1
1
1
1
1
1
1
1
1
1
1
1
1
1
1
1
1
1.00002
1
1
1
1
1
1
1
1
1
1
1
1
1
1
1
1
1
1
1
1
1
1
1
1
1
1
1
1
1
1
1
1
1
1
1
1
1
1
1
1
1
1
1
1
1
1
1
1
1
1
1
1
1
1
1
1
1
1
1
1
1
1
1
1
1
1
1
1
1
1
1
1
1
1
1
1
1
1
1
1
1
1
1
1
1
1
1
1
1
1
1
1
1
1
1
1
1
1
1
1
1
1
1
1
1
1
1
1
1
1
1
1
1
1
1
1
1
1
1
1
1
1
1
1
1
1
1
1
1
1
1
1
1
1
1
1
1
1
1
1
1
1
1
1
1
1
1
1
1
1
1
1
1
1
1
1
1
1
1
1
1
1
1
1
1
1
1
1
1
1
1
1
1
1
1
2.6979
3.06226
3.88813
3.30545
3.5534
3.56785
3.37568
2.93411
2.59844
2.48738
2.49063
2.50896
2.51405
2.49154
2.38635
2.22165
2.11562
2.08108
2.08688
2.09708
2.10887
2.1124
2.10786
2.1019
2.08991
2.07779
2.06684
2.06385
2.06085
2.0657
2.07745
2.11116
2.15734
2.23569
2.36342
2.50589
2.64707
2.7959
2.99612
3.17506
3.34309
3.54203
3.74012
3.937
4.14967
4.30226
4.4128
4.53619
4.63937
4.70591
4.78736
4.84467
4.86868
4.88585
4.89055
4.88989
4.87709
4.85478
4.82751
4.7955
4.75874
4.71778
4.67358
4.62636
4.57801
4.52833
4.47821
4.42814
4.37825
4.3281
4.27794
4.2274
4.17645
4.12499
4.07345
4.02251
3.97239
3.92336
3.87554
3.82866
3.78289
3.73818
3.69466
3.65223
3.61099
3.57061
3.53131
3.49286
3.45558
3.41915
3.38386
3.34957
3.31657
3.28447
3.25366
3.22223
3.19103
3.15777
3.12484
3.10549
4.1271
4.00043
3.59823
3.29095
3.67972
3.71317
3.58131
2.98196
2.4958
2.36439
2.41089
2.49004
2.49883
2.43989
2.32228
2.20283
2.12582
2.09007
2.09502
2.10417
2.11247
2.11821
2.11386
2.11153
2.10034
2.08893
2.07176
2.06274
2.05539
2.06285
2.07876
2.11666
2.1672
2.23095
2.34403
2.47284
2.603
2.75531
2.96777
3.17649
3.36709
3.55815
3.75598
3.93506
4.13021
4.27254
4.37303
4.50606
4.61925
4.69148
4.77298
4.83074
4.85983
4.87818
4.88325
4.88274
4.87059
4.84703
4.8194
4.78809
4.75181
4.71092
4.66711
4.62058
4.57263
4.52311
4.47334
4.42376
4.3743
4.32446
4.27449
4.22421
4.17341
4.12226
4.07079
4.01974
3.96957
3.92062
3.87295
3.82629
3.78079
3.73637
3.69311
3.65093
3.60985
3.56961
3.53036
3.49201
3.4548
3.41847
3.38316
3.34891
3.31598
3.2842
3.25338
3.22234
3.1908
3.15728
3.12243
3.10189
4.96847
4.35188
3.94875
3.60275
3.63132
3.59193
3.24193
2.69205
2.45446
2.4362
2.49207
2.52819
2.52642
2.50587
2.44645
2.28479
2.1076
2.05243
2.04654
2.08164
2.10204
2.11397
2.10693
2.0997
2.08435
2.07378
2.05912
2.06666
2.06029
2.06734
2.07376
2.10345
2.14714
2.21317
2.33808
2.4923
2.6488
2.75914
2.95903
3.13714
3.28416
3.47922
3.6924
3.89458
4.10428
4.2594
4.36894
4.47595
4.58189
4.65896
4.73028
4.79378
4.82983
4.84502
4.8494
4.85202
4.84293
4.82368
4.80026
4.77195
4.73797
4.69926
4.65644
4.61009
4.56213
4.51312
4.46363
4.41464
4.36606
4.31734
4.26835
4.21868
4.16802
4.11647
4.06472
4.01385
3.96422
3.91604
3.869
3.8229
3.7778
3.73371
3.69074
3.64887
3.60808
3.56803
3.52897
3.49088
3.45398
3.418
3.38282
3.34846
3.31557
3.28406
3.25313
3.22222
3.19053
3.15656
3.11976
3.09757
5.35722
4.49924
4.03284
3.6864
3.60717
3.57449
3.30769
2.90187
2.61849
2.4745
2.45122
2.49525
2.5023
2.44006
2.29624
2.13727
2.08348
2.07447
2.0871
2.1145
2.11459
2.12567
2.11747
2.11893
2.10264
2.10253
2.06664
2.06555
2.04356
2.05255
2.0642
2.10362
2.15717
2.19788
2.30367
2.42885
2.54919
2.70231
2.88907
3.10143
3.27897
3.44157
3.63568
3.81723
3.98908
4.16657
4.29345
4.39195
4.50913
4.61613
4.66636
4.73347
4.7838
4.80888
4.8244
4.82443
4.81426
4.79581
4.77611
4.75061
4.71789
4.67973
4.6382
4.59371
4.54685
4.49852
4.45051
4.403
4.35516
4.30685
4.25816
4.20886
4.1587
4.10792
4.05674
4.00587
3.95635
3.90854
3.86214
3.81684
3.77252
3.72919
3.68687
3.64548
3.60499
3.56523
3.52644
3.48878
3.45236
3.41697
3.38201
3.34782
3.31502
3.28364
3.25273
3.22192
3.19033
3.15605
3.11763
3.09342
5.51691
4.7211
4.14165
3.82718
3.68808
3.60448
3.3893
2.94748
2.57749
2.45372
2.45935
2.51084
2.50566
2.45602
2.37577
2.25309
2.15038
2.08831
2.06603
2.0863
2.10158
2.11407
2.10774
2.10187
2.08361
2.07267
2.04945
2.06302
2.05475
2.06592
2.06625
2.08623
2.1203
2.18479
2.27839
2.40868
2.53624
2.66829
2.80242
2.97559
3.14238
3.33336
3.53744
3.71827
3.88553
4.04847
4.17882
4.29046
4.42454
4.53294
4.59152
4.66675
4.71797
4.75141
4.75897
4.76626
4.76266
4.75254
4.73964
4.72043
4.69042
4.65582
4.61702
4.57324
4.52704
4.48057
4.43394
4.38743
4.34109
4.29458
4.24741
4.19911
4.14928
4.09824
4.04725
3.99726
3.94867
3.90161
3.85595
3.81145
3.76783
3.72498
3.68301
3.64189
3.60144
3.56176
3.52322
3.486
3.45023
3.41553
3.38112
3.34713
3.31416
3.28268
3.25184
3.2209
3.18913
3.15447
3.11488
3.08886
5.65571
4.91854
4.3558
3.99391
3.78699
3.66814
3.47094
3.09878
2.74833
2.55423
2.51079
2.51989
2.51277
2.45338
2.34366
2.20303
2.11284
2.07682
2.07816
2.10499
2.11376
2.12407
2.11541
2.11626
2.09747
2.0979
2.06706
2.07101
2.04517
2.05707
2.06969
2.09891
2.1351
2.17443
2.22748
2.29789
2.37371
2.47205
2.58709
2.74944
2.90897
3.11547
3.33231
3.53071
3.71949
3.89785
4.06633
4.19077
4.30243
4.36804
4.46966
4.5832
4.64846
4.6881
4.70429
4.70274
4.70282
4.70792
4.70114
4.68821
4.65887
4.62067
4.5852
4.54646
4.50378
4.46008
4.41544
4.37061
4.32568
4.28006
4.23332
4.18514
4.13586
4.08635
4.03712
3.98847
3.94053
3.89387
3.84883
3.80502
3.76192
3.71953
3.67771
3.63654
3.59605
3.55648
3.51829
3.48185
3.44715
3.41347
3.37988
3.34637
3.31342
3.28169
3.25067
3.2195
3.18756
3.15267
3.1122
3.08498
5.78759
5.09711
4.5589
4.16678
3.90985
3.77375
3.57039
3.27288
2.97168
2.68764
2.5442
2.51151
2.50244
2.47144
2.40493
2.29264
2.17229
2.10543
2.07997
2.08784
2.09972
2.11195
2.10765
2.10263
2.08992
2.0825
2.0631
2.07545
2.06386
2.09846
2.12431
2.14353
2.16598
2.19787
2.20513
2.22098
2.27141
2.32629
2.402
2.49235
2.60209
2.75256
2.91636
3.10014
3.31121
3.57751
3.84804
4.07819
4.23373
4.27672
4.3447
4.41598
4.50307
4.59049
4.65319
4.6675
4.65726
4.64931
4.64252
4.63315
4.62024
4.58759
4.55165
4.51675
4.47898
4.43917
4.39724
4.35303
4.30761
4.26201
4.21611
4.17039
4.1243
4.0769
4.02807
3.97899
3.93154
3.88596
3.84171
3.79853
3.75605
3.71403
3.67222
3.63077
3.5899
3.55013
3.51248
3.4772
3.44345
3.41047
3.37761
3.34462
3.31166
3.2795
3.24799
3.21641
3.18414
3.14887
3.10772
3.07972
5.89274
5.24068
4.71924
4.30676
4.04925
3.8594
3.6875
3.42582
3.14283
2.87321
2.66298
2.56336
2.53685
2.51047
2.46027
2.35872
2.2171
2.11248
2.07075
2.07084
2.0937
2.11995
2.12136
2.11677
2.09661
2.09798
2.08273
2.10913
2.10376
2.15781
2.25433
2.30216
2.31846
2.30211
2.26042
2.22777
2.22775
2.24214
2.27742
2.31088
2.38093
2.47175
2.5723
2.68678
2.85113
3.07106
3.31919
3.63639
3.98929
4.23791
4.3551
4.34077
4.36992
4.43582
4.51824
4.58338
4.61265
4.59831
4.58473
4.5767
4.571
4.55769
4.52442
4.4855
4.44761
4.40973
4.37314
4.33473
4.29208
4.24658
4.20039
4.15407
4.10794
4.06237
4.01665
3.97022
3.9238
3.87849
3.83468
3.79196
3.74965
3.70756
3.66561
3.62405
3.58323
3.54376
3.5069
3.47273
3.43998
3.40784
3.37573
3.3432
3.31034
3.27767
3.2454
3.21306
3.18014
3.14439
3.10274
3.07428
5.95379
5.35232
4.84384
4.44074
4.18676
3.95178
3.78783
3.55743
3.30324
3.03941
2.80692
2.65046
2.57882
2.53375
2.47931
2.39689
2.29403
2.18348
2.11249
2.08769
2.09159
2.10679
2.11967
2.11966
2.11546
2.10307
2.1189
2.12723
2.25623
2.35395
2.55508
2.6048
2.59883
2.52217
2.41483
2.32668
2.28406
2.26877
2.2553
2.26311
2.28654
2.32101
2.35596
2.40821
2.50685
2.62775
2.78498
3.03671
3.33864
3.71403
4.13703
4.35621
4.38525
4.36854
4.38553
4.4292
4.50194
4.54124
4.54526
4.54149
4.51296
4.49694
4.47995
4.45441
4.42507
4.38925
4.34938
4.30893
4.2681
4.22519
4.18093
4.13664
4.09273
4.0487
4.00369
3.95818
3.91235
3.86783
3.82493
3.78282
3.74105
3.69947
3.65797
3.61682
3.57643
3.5378
3.50212
3.46908
3.43701
3.40509
3.37296
3.34039
3.30742
3.27421
3.24109
3.208
3.17449
3.13829
3.09614
3.06729
6.01422
5.4496
4.95891
4.56752
4.29605
4.04718
3.88166
3.67153
3.43191
3.18153
2.94385
2.75122
2.63525
2.57215
2.51251
2.44822
2.36164
2.27564
2.18898
2.12661
2.10121
2.09728
2.10908
2.1079
2.12189
2.11456
2.16813
2.20057
2.46576
2.75789
3.0767
3.08333
2.98835
2.79414
2.61597
2.48741
2.40211
2.34737
2.30379
2.27987
2.27214
2.27021
2.27409
2.29258
2.32939
2.37203
2.45134
2.5843
2.74672
3.02634
3.40749
3.87079
4.27041
4.43611
4.38932
4.35608
4.37316
4.42101
4.47002
4.48455
4.46843
4.44696
4.424
4.41015
4.39401
4.37062
4.3351
4.29072
4.24477
4.20067
4.15853
4.1179
4.0767
4.03451
3.9899
3.94427
3.89988
3.85706
3.81511
3.77375
3.73264
3.69146
3.65035
3.60978
3.57026
3.53272
3.49808
3.4657
3.43388
3.40194
3.36973
3.33714
3.30411
3.27061
3.23682
3.20288
3.16851
3.13154
3.08869
3.05931
6.06114
5.53181
5.0647
4.68377
4.38847
4.14175
3.96744
3.76922
3.54517
3.31191
3.07505
2.8661
2.71335
2.62119
2.55644
2.49821
2.42402
2.35074
2.26502
2.18406
2.12552
2.10447
2.10606
2.11229
2.12537
2.1573
2.23068
2.42119
2.89027
3.4977
3.63623
3.56174
3.36488
3.12428
2.92096
2.75718
2.63062
2.53442
2.45526
2.3877
2.33507
2.29279
2.26721
2.25981
2.25788
2.26404
2.2891
2.32898
2.39949
2.54661
2.75146
3.0678
3.50755
4.05654
4.37473
4.43146
4.36651
4.33657
4.34243
4.37722
4.39519
4.39802
4.38516
4.37193
4.35783
4.33729
4.30692
4.26441
4.21608
4.17308
4.13588
4.0989
4.05987
4.01851
3.97537
3.93081
3.88716
3.84515
3.80405
3.7631
3.72223
3.6818
3.64211
3.60347
3.566
3.52998
3.49588
3.46332
3.43105
3.39869
3.36595
3.33277
3.29907
3.26497
3.23053
3.19592
3.16089
3.12339
3.08006
3.05008
6.10981
5.61293
5.16186
4.783
4.47362
4.23078
4.04893
3.85916
3.64782
3.42004
3.19134
2.98027
2.80815
2.68715
2.60143
2.54235
2.48889
2.41063
2.32925
2.24526
2.16898
2.12097
2.10441
2.11048
2.136
2.20178
2.35408
2.76729
3.48716
4.2042
4.1455
3.98991
3.73869
3.4911
3.27479
3.08662
2.92933
2.79155
2.67453
2.57904
2.49464
2.41685
2.35307
2.30614
2.26929
2.2404
2.23216
2.23353
2.25605
2.2962
2.37686
2.51696
2.7756
3.15318
3.65809
4.19804
4.44066
4.39018
4.29809
4.26411
4.2895
4.32796
4.35238
4.34422
4.32418
4.29376
4.26159
4.23056
4.19451
4.15434
4.11284
4.07497
4.03756
3.99876
3.95881
3.91627
3.87293
3.83128
3.79115
3.75158
3.71216
3.67307
3.63473
3.59763
3.56182
3.52716
3.49357
3.46074
3.4278
3.39457
3.36092
3.3271
3.29307
3.25885
3.22435
3.18958
3.15421
3.11612
3.0719
3.04125
6.13613
5.67236
5.24142
4.86963
4.5505
4.30297
4.11386
3.93393
3.74234
3.52914
3.31224
3.1021
2.91354
2.76631
2.66708
2.59776
2.53443
2.46698
2.39563
2.31352
2.23233
2.16092
2.12062
2.13267
2.17925
2.30701
2.63079
3.32858
4.21671
4.60182
4.52206
4.32405
4.05989
3.80912
3.58072
3.37903
3.2007
3.04623
2.9141
2.79296
2.68049
2.58615
2.50613
2.42836
2.35747
2.29343
2.25364
2.22773
2.20473
2.20066
2.21728
2.26189
2.36776
2.53853
2.8456
3.28437
3.88202
4.30509
4.40882
4.29385
4.23038
4.23646
4.27166
4.29
4.28512
4.25835
4.22318
4.18338
4.1585
4.13516
4.10358
4.06423
4.02302
3.98177
3.94111
3.90159
3.8613
3.82039
3.78
3.7406
3.70237
3.66526
3.6291
3.5937
3.55872
3.52427
3.49042
3.45702
3.42339
3.38947
3.3553
3.32108
3.28675
3.25236
3.21774
3.1828
3.14709
3.10834
3.06292
3.0312
6.17977
5.73912
5.32119
4.95475
4.63514
4.37703
4.18093
3.99943
3.81405
3.61897
3.4157
3.21587
3.02935
2.86207
2.7441
2.65564
2.58687
2.52287
2.45127
2.37459
2.29329
2.2034
2.17144
2.19053
2.28052
2.54188
3.1649
4.1534
4.79668
4.80595
4.70811
4.52732
4.31048
4.09096
3.87863
3.66981
3.4795
3.30788
3.15247
3.01005
2.88619
2.77927
2.67428
2.5718
2.48858
2.4201
2.35365
2.28658
2.22686
2.19095
2.17068
2.17798
2.20469
2.24994
2.37534
2.58266
2.94491
3.46531
4.07581
4.37168
4.35556
4.24046
4.18456
4.1814
4.19718
4.19549
4.19153
4.16178
4.12166
4.09075
4.06771
4.0412
4.00811
3.97035
3.92832
3.88619
3.84636
3.80751
3.76875
3.73037
3.69291
3.65698
3.62247
3.58867
3.55485
3.52081
3.48654
3.45211
3.41732
3.38242
3.34765
3.31327
3.27907
3.24493
3.21057
3.17575
3.1398
3.10033
3.05341
3.02018
6.21139
5.79165
5.38705
5.0202
4.70987
4.45119
4.2482
4.06498
3.88813
3.70283
3.50973
3.31444
3.13953
2.97146
2.8248
2.72361
2.64207
2.572
2.5023
2.43293
2.3441
2.27204
2.25507
2.30336
2.49591
3.03191
3.95624
4.75323
4.95876
4.91327
4.80471
4.66932
4.50617
4.32143
4.1195
3.91493
3.71826
3.53592
3.37139
3.22214
3.0871
2.96134
2.8425
2.73747
2.64572
2.55966
2.47086
2.39238
2.32697
2.2661
2.21602
2.18123
2.15877
2.15495
2.1708
2.23333
2.38953
2.6667
3.07851
3.65512
4.18516
4.36835
4.25623
4.13722
4.09277
4.1162
4.12425
4.12708
4.11155
4.07872
4.03623
4.00239
3.97359
3.94416
3.91031
3.86994
3.82691
3.78749
3.75184
3.71714
3.68239
3.64808
3.61449
3.58147
3.54842
3.51526
3.48178
3.4474
3.41179
3.37592
3.34078
3.30643
3.27217
3.23778
3.20307
3.16775
3.13108
3.09056
3.04182
3.00664
6.26135
5.85874
5.4641
5.0958
4.78623
4.5257
4.31657
4.13189
3.96399
3.78769
3.60489
3.41787
3.2385
3.07693
2.91968
2.7909
2.69736
2.62599
2.55029
2.47247
2.40087
2.36825
2.38803
2.52457
2.95003
3.78822
4.66975
5.01487
4.99862
4.94726
4.86904
4.7673
4.63943
4.48582
4.31293
4.12521
3.93657
3.7542
3.58346
3.42341
3.27561
3.14157
3.01712
2.90328
2.79839
2.69001
2.59856
2.52277
2.44838
2.37824
2.31209
2.24785
2.18965
2.14861
2.10997
2.12203
2.15265
2.24919
2.43294
2.76923
3.25281
3.88927
4.25958
4.29773
4.17788
4.0683
4.01902
4.04523
4.0557
4.04782
4.0201
3.9844
3.952
3.92108
3.88996
3.8565
3.81755
3.77681
3.73847
3.70453
3.67264
3.64099
3.60917
3.57684
3.54357
3.50976
3.47559
3.44075
3.40514
3.36893
3.33318
3.2983
3.26369
3.22896
3.19399
3.15828
3.12095
3.0793
3.02867
2.99168
6.2834
5.90401
5.5269
5.16165
4.85883
4.59607
4.37896
4.20056
4.03144
3.85911
3.68647
3.50886
3.33241
3.16876
3.0162
2.86835
2.76484
2.67848
2.58972
2.52055
2.4835
2.49508
2.60882
2.96875
3.71127
4.61889
5.03584
5.03461
5.01039
4.9727
4.91894
4.84265
4.74123
4.61149
4.45934
4.29175
4.11742
3.94368
3.77306
3.6101
3.4582
3.31452
3.18138
3.0641
2.94275
2.8329
2.74563
2.65511
2.57068
2.48912
2.41036
2.3343
2.26403
2.20125
2.14282
2.10223
2.07732
2.09442
2.1477
2.28385
2.52138
2.88453
3.42417
4.00586
4.26611
4.20534
4.05603
3.96922
3.94417
3.96178
3.96498
3.95844
3.93042
3.89418
3.85635
3.82152
3.78955
3.75699
3.72365
3.69016
3.65836
3.62844
3.59903
3.56894
3.53731
3.50421
3.47012
3.43451
3.39771
3.36123
3.32557
3.29022
3.25501
3.21962
3.18374
3.14686
3.10827
3.06529
3.01294
2.97427
6.33112
5.9765
5.61055
5.24397
4.93343
4.67243
4.44356
4.26946
4.10132
3.92886
3.76183
3.59625
3.42695
3.2608
3.104
2.95735
2.84026
2.74198
2.63702
2.59896
2.60404
2.70128
3.01769
3.70785
4.65961
5.11085
5.10228
5.06978
5.03429
4.99977
4.95746
4.89925
4.81575
4.70783
4.57376
4.42822
4.27141
4.1103
3.94505
3.78357
3.62689
3.4785
3.34483
3.21493
3.08784
2.98478
2.8769
2.77391
2.68336
2.59194
2.50323
2.42626
2.3492
2.27757
2.21077
2.14211
2.09015
2.06064
2.06097
2.08732
2.15376
2.31274
2.6204
3.03269
3.61189
4.06613
4.20126
4.08211
3.94551
3.88374
3.89016
3.89843
3.89553
3.88305
3.85061
3.80489
3.76379
3.73178
3.70617
3.67963
3.65036
3.62055
3.59093
3.56056
3.52953
3.49779
3.46466
3.42917
3.39092
3.35208
3.31474
3.27819
3.24192
3.2056
3.16899
3.1314
3.09197
3.04804
2.99449
2.95484
6.33195
6.02691
5.69296
5.34622
5.02261
4.76357
4.52321
4.33597
4.1742
4.00511
3.8338
3.67533
3.51845
3.35729
3.19567
3.04526
2.90982
2.7797
2.72247
2.70476
2.7921
3.07647
3.73789
4.73482
5.25066
5.23647
5.17849
5.1096
5.0616
5.02631
4.98655
4.9355
4.8667
4.77848
4.6686
4.54111
4.39398
4.2408
4.08095
3.92595
3.77521
3.63348
3.48903
3.34785
3.22953
3.1125
2.98975
2.88352
2.78462
2.69199
2.60482
2.52173
2.44476
2.36825
2.29359
2.22355
2.1616
2.10486
2.06025
2.02894
2.0332
2.09204
2.1866
2.38882
2.71679
3.18124
3.78209
4.0987
4.08905
3.95521
3.86121
3.81974
3.82963
3.83694
3.82759
3.80089
3.75894
3.71881
3.68781
3.66306
3.63826
3.61121
3.58336
3.5531
3.5202
3.48748
3.4544
3.41942
3.38154
3.34163
3.30203
3.26377
3.22659
3.18973
3.15262
3.1144
3.0742
3.02941
2.97483
2.93434
6.36202
6.08175
5.77052
5.44289
5.11286
4.84845
4.60059
4.39368
4.23705
4.07603
3.90504
3.74636
3.59783
3.44959
3.29074
3.13127
2.97066
2.86263
2.83687
2.8824
3.1281
3.76035
4.76916
5.43759
5.4392
5.36506
5.2551
5.16634
5.10801
5.06351
5.01702
4.96478
4.90307
4.82707
4.73455
4.62323
4.49327
4.35242
4.20346
4.05213
3.90198
3.75303
3.60225
3.46684
3.33441
3.20637
3.09218
2.98362
2.87606
2.78029
2.69195
2.60475
2.52262
2.44349
2.36733
2.29807
2.23228
2.17073
2.11283
2.05718
2.02783
2.02105
2.02751
2.08301
2.21734
2.44595
2.8119
3.31893
3.83828
4.05374
3.98625
3.85839
3.77981
3.74707
3.75694
3.75794
3.74617
3.72006
3.68498
3.64894
3.6192
3.59375
3.56787
3.54191
3.51207
3.47733
3.44196
3.40624
3.36771
3.32656
3.28543
3.24599
3.20776
3.16985
3.13188
3.09297
3.05211
3.0071
2.95228
2.91144
6.36755
6.14842
5.87817
5.5683
5.23499
4.93929
4.68639
4.45938
4.299
4.15003
3.98158
3.81649
3.67166
3.53169
3.38043
3.2153
3.06172
2.99943
3.0194
3.21119
3.799
4.79242
5.60899
5.6769
5.58502
5.43952
5.31748
5.23268
5.16241
5.1005
5.04377
4.98656
4.92639
4.85823
4.77846
4.6836
4.57485
4.44945
4.31464
4.16839
4.01874
3.86642
3.72841
3.58741
3.447
3.31902
3.20688
3.09344
2.98619
2.88637
2.79364
2.70696
2.62023
2.53626
2.45539
2.37837
2.30753
2.24193
2.17958
2.12338
2.06935
2.02493
2.00264
1.97906
2.01042
2.08751
2.24282
2.53732
2.94686
3.55413
3.92349
3.97082
3.87609
3.76598
3.70856
3.70031
3.70489
3.70129
3.67835
3.64312
3.6053
3.57293
3.54589
3.5217
3.49742
3.46751
3.43012
3.39064
3.34962
3.30725
3.26539
3.2252
3.18653
3.14827
3.11001
3.07114
3.02991
2.98426
2.92889
2.88768
6.30104
6.15016
5.91404
5.64174
5.33702
5.03139
4.77908
4.53835
4.35534
4.21373
4.05656
3.8842
3.73027
3.60242
3.45732
3.29576
3.20242
3.18798
3.33709
3.84786
4.81538
5.77277
5.9871
5.82678
5.63526
5.50145
5.41275
5.32387
5.23486
5.15454
5.08465
5.01928
4.95419
4.88567
4.81117
4.72662
4.62988
4.51984
4.39723
4.26661
4.12828
3.98838
3.84849
3.70604
3.5691
3.43805
3.31231
3.19774
3.08983
2.9917
2.89469
2.80133
2.71273
2.62563
2.54053
2.45956
2.38008
2.30717
2.24459
2.18492
2.1301
2.07693
2.02789
1.98765
1.94769
1.96116
1.99771
2.09024
2.30771
2.65438
3.13688
3.70538
3.93683
3.89519
3.77338
3.69285
3.65501
3.64831
3.64252
3.62554
3.59524
3.55864
3.52638
3.49807
3.47347
3.44827
3.41686
3.37889
3.33543
3.28894
3.24409
3.20251
3.16319
3.12446
3.08527
3.04546
3.00385
2.95808
2.90266
2.86134
5.81759
6.19904
5.96859
5.70977
5.42446
5.13508
4.87622
4.633
4.42568
4.27898
4.13022
3.96017
3.79291
3.6599
3.52324
3.4133
3.38447
3.50908
3.96869
4.90341
5.95004
6.25709
6.07913
5.86287
5.71318
5.61323
5.51286
5.4077
5.30529
5.21078
5.12536
5.0491
4.97746
4.90593
4.83185
4.75281
4.66595
4.56894
4.46099
4.34384
4.21727
4.08564
3.9481
3.811
3.67401
3.53937
3.4093
3.28727
3.17495
3.07199
2.97439
2.8802
2.7874
2.69835
2.61103
2.52824
2.45183
2.37999
2.31572
2.25445
2.19791
2.14186
2.09382
2.04213
1.9826
1.93945
1.91826
1.92049
1.98936
2.12681
2.40205
2.81065
3.3545
3.76202
3.87535
3.80428
3.69656
3.61372
3.58021
3.57938
3.57222
3.54413
3.51234
3.48224
3.45416
3.42473
3.39171
3.35526
3.31387
3.26624
3.21822
3.17488
3.13529
3.09708
3.05842
3.0185
2.97677
2.93112
2.87535
2.8337
4.79453
6.01318
5.97381
5.75236
5.51516
5.2463
4.98161
4.73563
4.5029
4.34184
4.19592
4.03612
3.87697
3.72411
3.62007
3.59357
3.70085
4.13072
5.03695
6.17481
6.61537
6.38768
6.1327
5.96509
5.85233
5.73704
5.6189
5.50296
5.39261
5.28726
5.18798
5.09642
5.01338
4.93408
4.85583
4.77556
4.69184
4.60177
4.50411
4.39768
4.28337
4.16112
4.03514
3.90454
3.77203
3.64025
3.51197
3.38874
3.27257
3.1647
3.06464
2.9675
2.87019
2.77267
2.68128
2.59209
2.51153
2.44074
2.3757
2.31198
2.25338
2.20203
2.14752
2.0891
2.02489
1.96269
1.91104
1.89092
1.88478
1.92782
2.03406
2.21808
2.52067
2.9647
3.53398
3.80079
3.79338
3.69486
3.60018
3.53807
3.5107
3.50284
3.48264
3.46273
3.43824
3.41117
3.375
3.33045
3.28469
3.2372
3.18916
3.14518
3.10537
3.06744
3.02928
2.98921
2.94678
2.90079
2.8452
2.80372
3.60285
5.35786
6.01315
5.84461
5.58985
5.34569
5.09338
4.84918
4.60698
4.40492
4.25627
4.09207
3.94217
3.82787
3.79775
3.90798
4.32748
5.21599
6.446
7.03074
6.74049
6.41671
6.21677
6.0943
5.97304
5.84569
5.71763
5.59377
5.47297
5.35576
5.24406
5.13947
5.04382
4.95587
4.87143
4.78846
4.70443
4.61805
4.5273
4.43084
4.32765
4.218
4.10136
3.97954
3.85324
3.72564
3.59918
3.47664
3.36022
3.25132
3.14821
3.04793
2.95214
2.85337
2.75665
2.66069
2.57438
2.504
2.44059
2.37854
2.31919
2.26117
2.20201
2.14237
2.08272
2.02438
1.96267
1.91101
1.8844
1.87938
1.89757
1.94225
2.06956
2.31331
2.67793
3.17866
3.62187
3.76554
3.7087
3.59212
3.49485
3.44954
3.44116
3.42731
3.41078
3.38574
3.35387
3.30607
3.25261
3.20176
3.15607
3.11486
3.07428
3.0359
2.99826
2.95813
2.91521
2.86963
2.81465
2.77316
2.48809
4.14984
5.52119
5.81423
5.60489
5.3898
5.16766
4.94312
4.71141
4.48056
4.31011
4.15733
4.03785
4.00499
4.12111
4.5539
5.47077
6.79991
7.45855
7.13638
6.76134
6.52241
6.38087
6.24237
6.10435
5.96518
5.82849
5.69449
5.56421
5.43816
5.31679
5.20109
5.09246
4.99188
4.89757
4.80801
4.72041
4.63371
4.54517
4.45405
4.358
4.2565
4.14913
4.03631
3.91927
3.79851
3.67852
3.55931
3.44465
3.33492
3.2318
3.13033
3.02926
2.93238
2.82803
2.73108
2.64429
2.56822
2.4994
2.43955
2.37725
2.31276
2.25192
2.19483
2.13481
2.07131
2.01214
1.95689
1.90987
1.87912
1.86836
1.85905
1.89767
1.98457
2.13957
2.43125
2.83778
3.38201
3.64059
3.64526
3.56654
3.46149
3.39714
3.36389
3.35571
3.3464
3.32224
3.2779
3.22156
3.16467
3.11683
3.07747
3.0383
2.99974
2.96304
2.92489
2.88184
2.83486
2.78054
2.74033
1.59164
2.83885
4.55878
5.6006
5.63448
5.45949
5.25742
5.03992
4.81708
4.57732
4.36179
4.24707
4.21429
4.33943
4.79093
5.74955
7.17025
7.88266
7.53852
7.12955
6.85382
6.68662
6.52899
6.36947
6.21496
6.06723
5.92345
5.78282
5.6457
5.51226
5.38243
5.25736
5.13815
5.0258
4.92012
4.82102
4.72856
4.63923
4.55087
4.46163
4.37011
4.27541
4.17592
4.07175
3.963
3.85142
3.73781
3.6249
3.51248
3.4024
3.29569
3.19224
3.09092
2.99016
2.8897
2.79118
2.69813
2.61786
2.54724
2.48375
2.42403
2.36699
2.30634
2.24391
2.17841
2.11759
2.06647
2.01782
1.97385
1.93027
1.88791
1.85852
1.84067
1.85392
1.89507
1.99115
2.21651
2.53759
2.99899
3.43304
3.59374
3.5475
3.44377
3.35303
3.30136
3.27936
3.26805
3.23363
3.18346
3.12956
3.07859
3.03492
2.99728
2.95912
2.92219
2.88584
2.84496
2.79927
2.74684
2.7079
1.09056
1.87278
3.47985
5.06102
5.69779
5.5672
5.35683
5.1478
4.9169
4.64898
4.48407
4.43237
4.55511
5.04073
6.07656
7.61896
8.3992
8.01467
7.5604
7.2459
7.05484
6.87842
6.70069
6.5223
6.35302
6.19266
6.03741
5.88637
5.73971
5.59735
5.45927
5.32546
5.19691
5.07403
4.95692
4.84642
4.74371
4.64897
4.55793
4.46853
4.37856
4.28688
4.1927
4.09496
3.99432
3.89104
3.78668
3.68181
3.57719
3.47319
3.3704
3.26883
3.16809
3.06546
2.9649
2.86438
2.77098
2.68639
2.61166
2.54456
2.48286
2.42089
2.36165
2.2978
2.23442
2.17314
2.11676
2.07102
2.02448
1.97795
1.93145
1.8878
1.8495
1.82877
1.81322
1.82281
1.88954
2.02541
2.29943
2.69249
3.17845
3.43577
3.46708
3.41813
3.32914
3.2464
3.19652
3.16993
3.13235
3.08928
3.04483
2.99991
2.95536
2.91506
2.87711
2.84387
2.80839
2.76681
2.71614
2.67661
1.04212
1.33613
2.47055
4.03514
5.2833
5.59806
5.43501
5.21532
4.97562
4.75287
4.65978
4.78881
5.29676
6.39512
8.0526
8.91084
8.49347
7.98721
7.63052
7.41976
7.23146
7.0449
6.84776
6.65408
6.47143
6.29967
6.13441
5.97482
5.82039
5.67092
5.5258
5.38497
5.24869
5.1173
4.99133
4.87036
4.75751
4.6548
4.56012
4.46889
4.37826
4.28757
4.19546
4.10173
4.00665
3.91099
3.81501
3.71877
3.62198
3.52391
3.42464
3.3239
3.22124
3.11616
3.01232
2.91414
2.82395
2.74006
2.6629
2.59316
2.52826
2.46637
2.40614
2.34532
2.28424
2.22324
2.16779
2.11784
2.07394
2.03126
1.98884
1.94553
1.9014
1.85587
1.81572
1.79439
1.76356
1.82092
1.92492
2.10657
2.38615
2.78747
3.18277
3.36787
3.35778
3.28441
3.18209
3.10892
3.05939
3.02691
2.99179
2.95658
2.91702
2.87245
2.83392
2.80082
2.77072
2.73357
2.68388
2.6428
1.00849
1.05281
1.54561
2.64514
4.14207
5.17416
5.31583
5.16837
4.98548
4.91171
5.04024
5.63463
6.82215
8.57346
9.46294
9.00562
8.44746
8.05167
7.82726
7.63687
7.43897
7.23019
7.0119
6.80484
6.60817
6.42056
6.24078
6.06932
5.90545
5.74771
5.59509
5.44712
5.30387
5.16525
5.03162
4.90231
4.77969
4.66751
4.56622
4.47141
4.37897
4.28682
4.19472
4.1031
4.01234
3.92293
3.83457
3.74602
3.65658
3.56574
3.47266
3.37729
3.27883
3.17738
3.0772
2.98142
2.89152
2.80759
2.73015
2.65814
2.59108
2.52731
2.46514
2.40376
2.3427
2.28399
2.22801
2.17563
2.12883
2.0814
2.03573
1.98954
1.94431
1.89887
1.85651
1.80802
1.77639
1.76534
1.76581
1.82064
1.91869
2.12784
2.46992
2.87368
3.15594
3.23732
3.20754
3.12201
3.03304
2.9683
2.92849
2.89457
2.86362
2.82766
2.79202
2.75657
2.72446
2.69161
2.64503
2.60264
0.999189
1.01881