/*--------------------------------*- C++ -*----------------------------------*\
| =========                 |                                                 |
| \\      /  F ield         | OpenFOAM: The Open Source CFD Toolbox           |
|  \\    /   O peration     | Version:  v2106                                 |
|   \\  /    A nd           | Website:  www.openfoam.com                      |
|    \\/     M anipulation  |                                                 |
\*---------------------------------------------------------------------------*/
FoamFile
{
    version     2.0;
    format      ascii;
    arch        "LSB;label=32;scalar=64";
    class       surfaceScalarField;
    location    "15";
    object      phi;
}
// * * * * * * * * * * * * * * * * * * * * * * * * * * * * * * * * * * * * * //

dimensions      [1 0 -1 0 0 0 0];

oriented        oriented;

internalField   nonuniform List<scalar> 
10325
(
0.0084507
-1.15522e-16
0.0084507
2.73677e-15
0.0084507
3.09518e-15
0.0084507
1.7906e-13
0.0084507
8.28649e-13
0.0084507
-1.18611e-11
0.0084507
1.05443e-10
0.0084507
-4.66175e-10
0.00845064
2.39152e-09
0.00845043
-1.62575e-08
0.0084461
2.15582e-08
0.00842046
-1.48615e-07
0.00815521
-1.56317e-05
0.00721777
2.81768e-05
0.00631483
8.77925e-05
0.00681067
0.000958676
0.00688096
0.000514213
0.00627922
0.000601766
0.00559461
0.000624576
0.00492013
0.000713374
0.00411256
0.000811028
0.00321532
0.000898434
0.0022517
0.000970804
0.00118695
0.00107073
0.00118966
0.0084507
-1.02999e-18
0.0084507
7.51162e-16
0.0084507
1.83648e-15
0.0084507
6.15858e-14
0.0084507
-6.17737e-14
0.0084507
-3.05291e-12
0.0084507
8.23309e-11
0.0084507
-9.11038e-11
0.00845065
2.0289e-09
0.00845025
2.22552e-09
0.00844652
2.03838e-08
0.00841538
8.05509e-07
0.00815559
-1.32611e-05
0.0072188
5.59084e-05
0.00629706
0.000189606
0.00667991
0.00197676
0.00679603
0.00103094
0.00619801
0.00120095
0.00550207
0.0012629
0.0047932
0.00145712
0.0040224
0.00158583
0.0031949
0.00172874
0.00221802
0.00195498
0.00112615
0.00216994
0.0023197
0.0084507
6.31548e-17
0.0084507
-7.15844e-17
0.0084507
1.94332e-15
0.0084507
-4.8543e-15
0.0084507
-1.95182e-13
0.0084507
8.89795e-13
0.0084507
1.21078e-11
0.0084507
1.13609e-10
0.00845066
9.35871e-10
0.00845029
1.15602e-08
0.00844694
4.4784e-08
0.00841867
1.14669e-06
0.00817401
-8.0864e-07
0.0072503
8.02656e-05
0.00630787
0.000296816
0.00651682
0.00303602
0.0067278
0.00158216
0.00612406
0.0018092
0.00538697
0.00194209
0.00470629
0.00217903
0.00400825
0.00228949
0.00312372
0.00261466
0.00211356
0.00297936
0.00106895
0.00322726
0.00340097
0.0084507
-7.34547e-17
0.0084507
1.38561e-16
0.0084507
3.55252e-15
0.0084507
-2.3824e-15
0.0084507
2.96569e-13
0.0084507
5.00136e-13
0.0084507
2.46693e-11
0.0084507
6.97929e-11
0.00845066
1.69302e-09
0.00845034
9.05234e-09
0.00844741
1.08028e-07
0.00842265
1.05168e-06
0.00821067
6.21407e-06
0.00732387
9.89988e-05
0.0063672
0.00038288
0.00637191
0.00406312
0.00665068
0.00229242
0.00603234
0.00242924
0.00534313
0.00258188
0.004694
0.0028565
0.0039248
0.0030608
0.00302426
0.00351779
0.00210071
0.00391177
0.00109683
0.00424044
0.00450647
0.0084507
-1.96457e-16
0.0084507
2.72758e-16
0.0084507
3.42044e-15
0.0084507
7.85561e-15
0.0084507
3.05099e-13
0.0084507
5.21297e-13
0.0084507
2.69154e-11
0.0084507
-2.66051e-12
0.00845067
2.14572e-09
0.00845041
-2.35275e-09
0.00844805
1.51151e-07
0.0084278
4.18052e-07
0.0082572
1.00031e-05
0.0074349
0.000101371
0.00650769
0.000376992
0.006341
0.00487285
0.00672769
0.00326727
0.00606373
0.00309795
0.00533788
0.00327028
0.00463028
0.00358735
0.00390022
0.00379973
0.00308947
0.00434166
0.0022059
0.00480495
0.00114716
0.00531739
0.00567329
0.0084507
-2.3267e-16
0.0084507
2.39446e-16
0.0084507
1.97702e-15
0.0084507
-1.49638e-14
0.0084507
3.79765e-13
0.0084507
3.38112e-13
0.0084507
2.8017e-11
0.0084507
1.99918e-11
0.00845068
2.28375e-09
0.00845046
-5.99699e-09
0.00844866
1.78356e-07
0.0084329
-9.41282e-07
0.00830399
1.01638e-05
0.00756461
8.90389e-05
0.00667126
0.000268185
0.0064726
0.00505463
0.00717421
0.00458646
0.00639773
0.00387567
0.00554258
0.00407649
0.00475993
0.00439796
0.00407448
0.00448737
0.00322203
0.00520296
0.0022668
0.00576809
0.00120438
0.00639885
0.00690395
0.0084507
-2.37088e-16
0.0084507
2.778e-16
0.0084507
-3.85906e-15
0.0084507
-2.30124e-14
0.0084507
2.58508e-13
0.0084507
-2.5917e-13
0.0084507
3.27255e-11
0.0084507
7.50552e-11
0.00845068
2.17586e-09
0.00845052
3.55975e-09
0.00844917
1.61233e-07
0.00843598
-5.31584e-07
0.00833844
8.61749e-06
0.00768084
7.38642e-05
0.00675535
0.000166854
0.00672741
0.00450548
0.00762884
0.00609422
0.00674362
0.00474387
0.00588386
0.00489803
0.00509543
0.00522331
0.00435417
0.00524657
0.00344703
0.00611343
0.00251789
0.00672837
0.00142877
0.00751599
0.00836687
0.0084507
-2.82435e-17
0.0084507
4.95833e-16
0.0084507
2.78477e-15
0.0084507
3.91501e-14
0.0084507
-4.15196e-13
0.0084507
-2.15248e-13
0.0084507
2.59606e-11
0.0084507
5.00582e-11
0.00845069
1.40167e-09
0.00845057
6.49792e-09
0.00844978
9.1735e-08
0.00843882
6.37976e-07
0.00836707
6.39544e-06
0.00779701
5.91372e-05
0.00679205
0.000153738
0.00697744
0.00349316
0.0083994
0.00720219
0.00739484
0.00574373
0.00644615
0.00579968
0.00556862
0.00614518
0.00474911
0.00607675
0.00377688
0.00708923
0.00278603
0.00772495
0.00158633
0.0087327
0.0100469
0.0084507
1.21783e-16
0.0084507
-6.69495e-18
0.0084507
7.29584e-15
0.0084507
2.57596e-14
0.0084507
-2.82579e-13
0.0084507
1.86753e-12
0.0084507
1.13582e-11
0.0084507
7.84686e-11
0.0084507
7.36343e-10
0.00845057
6.52805e-09
0.00845007
6.09079e-08
0.00844148
5.59518e-07
0.00838784
5.09985e-06
0.00789706
5.04362e-05
0.00682878
0.000225743
0.00695096
0.00248156
0.00890394
0.007837
0.00806079
0.00659257
0.00720591
0.00662401
0.00630495
0.00710828
0.00541684
0.00700583
0.00454795
0.00800938
0.00352144
0.00882115
0.00237724
0.0099321
0.0125714
0.0084507
8.46762e-17
0.0084507
5.60261e-17
0.0084507
4.94659e-15
0.0084507
2.20815e-14
0.0084507
-1.53901e-13
0.0084507
2.1286e-12
0.0084507
-1.59998e-12
0.0084507
1.0095e-10
0.0084507
2.67065e-10
0.0084506
6.63766e-09
0.00845027
3.75304e-08
0.00844361
4.99972e-07
0.00840503
3.80865e-06
0.00800795
4.22508e-05
0.00698604
0.000265876
0.00677946
0.0018058
0.0088895
0.0081303
0.00853044
0.00695138
0.00788814
0.00725511
0.00711856
0.00790444
0.00617412
0.00797177
0.00524662
0.00896
0.00419058
0.00991092
0.00257972
0.0115673
0.0156558
0.0084507
4.42354e-17
0.0084507
1.07173e-16
0.0084507
3.32818e-15
0.0084507
1.98814e-14
0.0084507
1.99224e-13
0.0084507
1.54656e-12
0.0084507
-1.20286e-11
0.0084507
1.34884e-10
0.0084507
-2.86335e-10
0.00845063
6.7749e-09
0.00845042
4.0611e-09
0.00844544
4.03184e-07
0.00841832
2.51997e-06
0.00812135
2.18551e-05
0.00718792
0.000264088
0.00670439
0.00138851
0.008624
0.00809636
0.00872528
0.00720183
0.00847176
0.00757009
0.00782335
0.00856609
0.00709535
0.00875556
0.0063377
0.00980506
0.00579046
0.0106472
0.0055188
0.0121762
0.0132677
0.00863916
0.0084507
7.04731e-18
0.0084507
1.70518e-16
0.0084507
1.39182e-15
0.0084507
1.24786e-15
0.0084507
1.24502e-13
0.0084507
-3.19814e-13
0.0084507
1.09756e-12
0.0084507
4.925e-11
0.0084507
1.32645e-10
0.00845066
5.60213e-09
0.00845032
1.13685e-12
0.00844731
4.02662e-07
0.00842413
-1.21576e-06
0.00822083
1.56914e-05
0.00738665
0.000228388
0.00673841
0.00109145
0.00808948
0.00792199
0.0086932
0.0075959
0.00867682
0.00770165
0.00836719
0.00877815
0.00784791
0.00928115
0.00748147
0.0102317
0.00751953
0.0106408
0.00786549
0.0116288
0.0118459
0.0101923
0.0084507
-6.85758e-18
0.0084507
1.09369e-16
0.0084507
7.33056e-16
0.0084507
-5.65306e-15
0.0084507
7.57427e-14
0.0084507
-7.73369e-13
0.0084507
5.24728e-12
0.0084507
-6.47486e-12
0.0084507
3.58767e-10
0.00845068
1.88916e-09
0.00845048
7.67956e-09
0.0084489
2.92392e-07
0.00843399
-2.63115e-06
0.00831513
1.87065e-05
0.00763727
0.000156086
0.00689168
0.000782178
0.0077417
0.00713369
0.00866397
0.00859892
0.0084796
0.00788708
0.00859067
0.00865293
0.00851632
0.00933237
0.0084487
0.0102993
0.00865693
0.010643
0.00916179
0.0110569
0.0110189
0.0106357
0.0084507
1.49078e-18
0.0084507
3.35018e-17
0.0084507
4.25549e-17
0.0084507
2.91054e-16
0.0084507
1.0177e-14
0.0084507
3.72485e-13
0.0084507
-1.74935e-13
0.0084507
3.48683e-11
0.0084507
1.02254e-10
0.00845069
5.55446e-10
0.00845058
1.27016e-08
0.00844976
1.21389e-07
0.00843851
3.13075e-07
0.00837228
1.06511e-05
0.00785186
9.72381e-05
0.00707602
0.000460448
0.00786124
0.00531647
0.00929742
0.00985709
0.00884277
0.00836897
0.00875683
0.00871212
0.00885571
0.00922623
0.00911062
0.0100739
0.00950911
0.0104363
0.00997726
0.010707
0.0104675
0.0110105
0.0084507
-3.36103e-18
0.0084507
1.2631e-17
0.0084507
1.52114e-16
0.0084507
5.01877e-16
0.0084507
1.67968e-14
0.0084507
-1.04532e-13
0.0084507
6.21718e-13
0.0084507
1.91078e-11
0.0084507
7.97686e-11
0.0084507
9.81634e-10
0.0084506
9.17513e-09
0.00845024
7.31668e-08
0.00844316
7.25261e-07
0.00840361
6.25641e-06
0.00800433
6.71169e-05
0.00705762
0.000402224
0.00770687
0.00352592
0.0100449
0.0104548
0.00945688
0.00899185
0.00923671
0.00900634
0.00920107
0.00926554
0.009468
0.00985026
0.00995152
0.0101265
0.0104325
0.0103488
0.00989462
0.0113452
0.0084507
3.38813e-18
0.0084507
5.59719e-17
0.0084507
-5.24212e-17
0.0084507
4.42756e-15
0.0084507
1.43568e-14
0.0084507
2.06749e-13
0.0084507
3.8039e-12
0.0084507
-2.35866e-12
0.0084507
1.23684e-10
0.0084507
1.11111e-10
0.00845064
8.21765e-09
0.00845045
2.65194e-08
0.0084461
5.55481e-07
0.00842318
3.20156e-06
0.00815981
4.2899e-05
0.00729574
0.000348767
0.00741926
0.00222789
0.01022
0.0094674
0.0102687
0.00971281
0.00990175
0.00954165
0.00966001
0.0095079
0.00974837
0.00975528
0.0101442
0.00980515
0.010667
0.00993953
0.00945084
0.0113756
0.0084507
2.98156e-19
0.0084507
2.19551e-18
0.0084507
-9.14525e-17
0.0084507
2.14466e-15
0.0084507
3.52192e-15
0.0084507
1.32198e-13
0.0084507
2.56904e-12
0.0084507
-1.73763e-12
0.0084507
9.20865e-11
0.0084507
1.63897e-10
0.00845067
5.38272e-09
0.00845044
2.11213e-08
0.00844847
3.49241e-07
0.00843127
1.977e-06
0.0083004
2.38538e-05
0.00762948
0.000225431
0.00734042
0.00131643
0.00924397
0.00790648
0.0104696
0.010327
0.01027
0.00986661
0.010062
0.00965781
0.0100569
0.00972437
0.0103019
0.00963423
0.0107541
0.00960427
0.00914617
0.0112683
0.0084507
1.0571e-18
0.0084507
3.42337e-17
0.0084507
3.277e-16
0.0084507
1.31134e-16
0.0084507
1.40307e-14
0.0084507
1.95469e-14
0.0084507
8.99599e-13
0.0084507
6.56484e-12
0.0084507
9.44111e-12
0.0084507
3.29504e-10
0.0084507
1.04488e-09
0.00845053
2.31088e-08
0.00845013
1.39806e-07
0.00843939
1.14699e-06
0.00838562
1.49566e-05
0.00799598
-4.48851e-06
0.00734594
0.000870099
0.0085823
0.00549948
0.0108827
0.0108779
0.0107156
0.0100635
0.0106015
0.00985319
0.0105576
0.00977941
0.0106705
0.00960567
0.010941
0.00944204
0.00895583
0.0112922
0.0084507
6.23416e-19
0.0084507
2.11962e-17
0.0084507
2.00496e-16
0.0084507
1.26337e-16
0.0084507
5.70784e-15
0.0084507
-1.0972e-14
0.0084507
4.68778e-13
0.0084507
4.10641e-12
0.0084507
6.3419e-12
0.0084507
1.69787e-10
0.0084507
3.48518e-10
0.00845063
1.58679e-08
0.00845008
7.10534e-08
0.00844524
5.15407e-07
0.00840711
9.2417e-06
0.00812067
-5.49868e-05
0.00738829
0.000546173
0.00827819
0.00333343
0.0113137
0.0100958
0.0114306
0.0105685
0.0112351
0.0102891
0.01105
0.00999783
0.0110101
0.00968352
0.0111271
0.00939469
0.00885819
0.0113514
0.0084507
5.39391e-18
0.0084507
-2.38524e-18
0.0084507
9.75511e-17
0.0084507
5.94956e-17
0.0084507
5.36317e-15
0.0084507
4.22421e-14
0.0084507
5.97116e-14
0.0084507
2.07141e-12
0.0084507
2.30182e-12
0.0084507
1.23449e-10
0.0084507
1.49601e-09
0.00845072
1.5952e-09
0.00845016
6.6375e-08
0.00845027
2.8767e-07
0.00842511
3.40013e-06
0.00823335
4.28514e-05
0.00782914
-0.000154907
0.00809831
0.00193575
0.0105679
0.00832865
0.0118526
0.0112114
0.011679
0.0107351
0.0114933
0.0101477
0.0113991
0.00977679
0.0114209
0.00942638
0.00887317
0.0115092
0.0084507
4.2826e-18
0.0084507
-3.52366e-18
0.0084507
4.11184e-17
0.0084507
-1.52818e-16
0.0084507
2.66632e-15
0.0084507
2.22509e-14
0.0084507
1.82212e-14
0.0084507
8.37199e-13
0.0084507
-3.34854e-12
0.0084507
6.26096e-11
0.0084507
9.57823e-10
0.00845069
4.95402e-10
0.00845058
2.54977e-08
0.00844967
8.36967e-08
0.00844217
1.13862e-06
0.00838274
2.51048e-05
0.0080127
-0.000296367
0.00746192
0.00118665
0.00908066
0.00550144
0.0118814
0.0112298
0.0118404
0.0108074
0.0118798
0.0102964
0.0117945
0.00991679
0.0117617
0.00950548
0.00895681
0.0117628
0.0084507
-1.51788e-18
0.0084507
3.03577e-18
0.0084507
2.54245e-17
0.0084507
2.53188e-16
0.0084507
3.47812e-16
0.0084507
1.16205e-14
0.0084507
4.56948e-14
0.0084507
5.03365e-13
0.0084507
1.08618e-11
0.0084507
4.1038e-12
0.0084507
3.73322e-10
0.0084507
1.01264e-09
0.00845054
1.89595e-08
0.00845063
1.59256e-07
0.00845152
3.79376e-07
0.00840873
6.80517e-06
0.00801002
5.88326e-05
0.00772173
-0.000148076
0.00888085
0.0033146
0.0120462
0.0096012
0.0127004
0.0113628
0.0125187
0.0107983
0.0123429
0.0101698
0.0122152
0.00969419
0.0091357
0.0121043
0.0084507
-2.19551e-18
0.0084507
2.24972e-18
0.0084507
9.37835e-18
0.0084507
1.51219e-16
0.0084507
2.56847e-16
0.0084507
4.98999e-15
0.0084507
2.53288e-14
0.0084507
9.04834e-14
0.0084507
8.44778e-12
0.0084507
-3.68837e-13
0.0084507
1.89392e-10
0.0084507
2.33388e-10
0.00845068
7.66165e-09
0.00845052
8.43056e-08
0.00844913
7.22394e-08
0.00843785
2.23273e-06
0.00835284
3.41834e-05
0.00793986
-0.000423631
0.00789596
0.00188575
0.0101961
0.0070573
0.0127051
0.0114392
0.0126961
0.0109577
0.0127052
0.0103379
0.012587
0.00989822
0.00933442
0.0124518
0.0084507
-3.25261e-19
0.0084507
-1.0842e-18
0.0084507
4.11997e-18
0.0084507
1.43928e-17
0.0084507
1.41624e-16
0.0084507
1.20062e-15
0.0084507
9.45275e-15
0.0084507
1.01095e-13
0.0084507
5.80574e-13
0.0084507
7.67929e-12
0.0084507
2.95943e-11
0.0084507
5.11298e-10
0.0084507
2.12935e-09
0.0084505
2.90919e-08
0.0084507
2.20808e-07
0.00845236
7.95706e-07
0.00839906
9.72592e-06
0.00790721
8.07648e-05
0.00785581
4.21707e-05
0.00956597
0.00433884
0.0128885
0.0103223
0.0133579
0.0113009
0.0132314
0.0108039
0.0130338
0.0101681
0.00957534
0.0128354
0.0084507
5.42101e-20
0.0084507
-9.48677e-19
0.0084507
4.55365e-18
0.0084507
-2.43945e-18
0.0084507
7.43763e-17
0.0084507
2.20933e-16
0.0084507
4.57184e-15
0.0084507
3.60106e-14
0.0084507
1.7254e-13
0.0084507
3.93731e-12
0.0084507
9.07839e-12
0.0084507
2.32522e-10
0.0084507
7.17472e-10
0.00845068
7.42945e-09
0.00845048
1.01002e-07
0.00844868
2.42124e-07
0.00843446
2.98521e-06
0.00832206
4.54456e-05
0.00798611
-0.000422859
0.008454
0.00226882
0.0114099
0.00773902
0.0135622
0.0114445
0.0134529
0.0111573
0.0133653
0.0103556
0.00983714
0.0131564
0.0084507
-1.80556e-35
0.0084507
2.1684e-19
0.0084507
1.46367e-18
0.0084507
5.82759e-18
0.0084507
6.50521e-18
0.0084507
2.61781e-16
0.0084507
1.16221e-15
0.0084507
2.03868e-14
0.0084507
9.94989e-14
0.0084507
1.3594e-12
0.0084507
2.27996e-12
0.0084507
8.00501e-11
0.0084507
4.68977e-10
0.0084507
1.78963e-09
0.00845063
2.38628e-08
0.00845058
2.12093e-07
0.00845191
9.72994e-07
0.00839595
1.2303e-05
0.00789032
9.62841e-05
0.00787111
0.000256443
0.00989391
0.0047857
0.0135536
0.0102932
0.0139544
0.0113617
0.0137304
0.0108532
0.010114
0.0134656
0.0084507
8.13152e-20
0.0084507
-1.6263e-19
0.0084507
-8.13152e-20
0.0084507
1.35525e-18
0.0084507
-7.91468e-18
0.0084507
9.65753e-17
0.0084507
9.60061e-17
0.0084507
7.72724e-15
0.0084507
-9.42413e-15
0.0084507
5.56746e-13
0.0084507
-1.87295e-12
0.0084507
2.52863e-11
0.0084507
1.43648e-10
0.0084507
1.05025e-09
0.00845066
1.42468e-08
0.00845042
7.14236e-08
0.00844854
1.62874e-07
0.00843374
2.5688e-06
0.00832752
4.63638e-05
0.00806617
-0.000364925
0.00875329
0.00250179
0.0119877
0.00778162
0.014047
0.0114166
0.0138616
0.0111504
0.0102706
0.0137728
0.0084507
4.60786e-19
0.0084507
1.02999e-18
0.0084507
4.33681e-19
0.0084507
-5.42101e-19
0.0084507
1.68051e-18
0.0084507
2.85687e-17
0.0084507
2.07272e-16
0.0084507
2.99207e-15
0.0084507
2.1931e-15
0.0084507
1.34972e-13
0.0084507
1.21226e-12
0.0084507
8.39258e-12
0.0084507
2.72523e-11
0.0084507
4.19986e-10
0.0084507
4.41945e-09
0.00845066
4.03073e-08
0.00844925
4.61502e-08
0.00844794
1.78272e-06
0.00842048
1.41564e-05
0.00798106
9.42653e-05
0.00788444
0.00047698
0.00992615
0.0046867
0.0137111
0.00994217
0.0142124
0.0112072
0.0106863
0.0140274
0.0084507
-5.96311e-19
0.0084507
-6.23416e-19
0.0084507
-2.05998e-18
0.0084507
-2.60209e-18
0.0084507
-2.98156e-18
0.0084507
6.34258e-18
0.0084507
1.2837e-16
0.0084507
9.27752e-16
0.0084507
5.45798e-15
0.0084507
3.37277e-14
0.0084507
6.37706e-13
0.0084507
3.54238e-12
0.0084507
-2.50453e-11
0.0084507
2.74472e-10
0.0084507
9.61422e-10
0.00845068
1.91306e-08
0.0084504
-6.3471e-08
0.00844879
5.93926e-07
0.00843541
2.74603e-06
0.00835167
3.51261e-05
0.00814055
-0.000237009
0.00891506
0.00237692
0.0120349
0.00741929
0.0142237
0.0111057
0.0108697
0.0141063
0.0084507
-1.89735e-19
0.0084507
-1.0842e-19
0.0084507
-1.16552e-18
0.0084507
-1.57209e-18
0.0084507
-1.02999e-18
0.0084507
-5.01444e-18
0.0084507
5.91974e-17
0.0084507
2.61754e-16
0.0084507
1.77961e-15
0.0084507
1.6702e-14
0.0084507
1.67403e-13
0.0084507
1.04902e-12
0.0084507
9.18985e-12
0.0084507
5.58582e-11
0.0084507
3.34965e-10
0.00845069
4.56877e-09
0.0084504
2.73752e-08
0.00845038
3.00811e-07
0.00845293
1.66303e-06
0.00840909
1.60459e-05
0.00806787
8.59169e-05
0.00771632
0.000752357
0.00976913
0.00420704
0.0137418
0.00922927
0.0109231
0.0144709
0.0084507
1.6263e-19
0.0084507
-1.6263e-19
0.0084507
2.71051e-20
0.0084507
4.87891e-19
0.0084507
3.06287e-18
0.0084507
-8.78204e-18
0.0084507
2.40964e-17
0.0084507
1.08447e-16
0.0084507
1.76345e-16
0.0084507
1.02337e-14
0.0084507
2.54094e-14
0.0084507
4.55197e-13
0.0084507
1.99624e-12
0.0084507
2.68054e-11
0.0084507
1.64854e-10
0.0084507
1.73149e-09
0.0084507
1.01439e-08
0.00845047
1.2012e-07
0.00845026
3.28797e-07
0.00843869
5.51018e-06
0.00838605
2.23093e-05
0.00819294
3.77467e-05
0.00887584
0.00202512
0.011803
0.00665526
0.0105794
0.0144766
0.0084507
-2.43945e-19
0.0084507
-6.77626e-19
0.0084507
-3.25261e-19
0.0084507
-8.13152e-20
0.0084507
1.73472e-18
0.0084507
-2.52077e-18
0.0084507
8.26704e-18
0.0084507
1.68864e-17
0.0084507
1.60733e-17
0.0084507
2.43463e-15
0.0084507
9.83155e-15
0.0084507
1.2351e-13
0.0084507
7.85434e-13
0.0084507
7.14343e-12
0.0084507
4.80746e-11
0.0084507
4.33608e-10
0.0084507
2.87082e-09
0.00845075
2.78178e-08
0.00845011
1.89679e-07
0.00845173
1.54008e-06
0.00841402
1.25892e-05
0.0082259
9.11006e-05
0.00783811
0.000822285
0.00972514
0.00362936
0.00832267
0.0137279
0.0084507
-5.69206e-19
0.0084507
-5.42101e-19
0.0084507
-1.11131e-18
0.0084507
-1.54499e-18
0.0084507
-1.78893e-18
0.0084507
-2.1413e-18
0.0084507
-2.1684e-19
0.0084507
-5.42101e-20
0.0084507
9.27264e-17
0.0084507
5.23643e-16
0.0084507
4.41853e-15
0.0084507
1.47529e-14
0.0084507
4.01471e-13
0.0084507
1.24065e-12
0.0084507
2.30908e-11
0.0084507
8.26266e-11
0.0084507
1.29641e-09
0.0084507
6.24656e-09
0.00845053
7.05365e-08
0.00845034
3.49472e-07
0.00844139
4.34963e-06
0.00841395
2.47723e-05
0.00830932
0.000116439
0.00871586
0.00181145
0.0056746
0.0112042
0.0084507
-4.06576e-19
0.0084507
3.52366e-19
0.0084507
-1.35525e-19
0.0084507
-1.89735e-19
0.0084507
-2.43945e-19
0.0084507
-8.40257e-19
0.0084507
-7.58942e-19
0.0084507
1.49078e-18
0.0084507
5.2123e-17
0.0084507
2.11663e-16
0.0084507
1.94931e-15
0.0084507
1.24397e-14
0.0084507
5.37747e-14
0.0084507
6.54439e-13
0.0084507
4.14928e-12
0.0084507
3.94747e-11
0.0084507
2.73563e-10
0.0084507
2.55922e-09
0.00845072
1.72314e-08
0.00845026
1.48923e-07
0.00845159
1.21218e-06
0.00842931
7.21375e-06
0.00835083
7.70966e-05
0.00799301
0.000760656
0.00286008
0.00964601
0.0084507
-1.0842e-19
0.0084507
4.06576e-19
0.0084507
7.86047e-19
0.0084507
4.33681e-19
0.0084507
4.87891e-19
0.0084507
1.21973e-18
0.0084507
1.84314e-18
0.0084507
2.6563e-18
0.0084507
1.69407e-17
0.0084507
9.5193e-17
0.0084507
3.40087e-16
0.0084507
5.71824e-15
0.0084507
-8.41818e-15
0.0084507
2.87559e-13
0.0084507
8.13714e-13
0.0084507
1.66008e-11
0.0084507
5.76342e-11
0.0084507
9.45102e-10
0.00845069
3.34817e-09
0.00845061
1.91112e-08
0.00845021
2.75296e-07
0.00844589
3.12857e-07
0.00845183
9.37237e-06
0.00844597
0.000155395
0.00121701
0.00866605
0.0084507
4.60786e-19
0.0084507
2.43945e-19
0.0084507
-8.13152e-20
0.0084507
5.42101e-19
0.0084507
7.58942e-19
0.0084507
1.89735e-18
0.0084507
2.35814e-18
0.0084507
4.49944e-18
0.0084507
2.08709e-18
0.0084507
4.3612e-17
0.0084507
2.04535e-16
0.0084507
3.74131e-16
0.0084507
8.60832e-15
0.0084507
1.0105e-13
0.0084507
3.70369e-13
0.0084507
4.52774e-12
0.0084507
3.14834e-11
0.0084507
3.10081e-10
0.0084507
1.72814e-09
0.00845069
-1.11407e-08
0.00845052
8.05407e-08
0.00844902
9.71782e-07
0.00844152
-2.99798e-06
0.00842731
5.44735e-05
0.000271495
0.0083823
0.0084507
1.0842e-19
0.0084507
3.25261e-19
0.0084507
2.43945e-19
0.0084507
8.40257e-19
0.0084507
6.77626e-19
0.0084507
7.31836e-19
0.0084507
1.49078e-18
0.0084507
3.27971e-18
0.0084507
-3.46945e-18
0.0084507
1.39591e-17
0.0084507
4.27718e-17
0.0084507
4.92716e-16
0.0084507
-1.27277e-15
0.0084507
3.61489e-14
0.0084507
2.15111e-14
0.0084507
3.27804e-13
0.0084507
1.414e-11
0.0084507
4.04077e-11
0.0084507
6.30815e-10
0.00845069
2.85328e-09
0.00845051
4.0147e-08
0.00845148
2.55396e-07
0.00844954
1.1305e-06
0.00844137
1.27978e-05
7.57561e-05
0.00849488
0.0084507
-2.43945e-19
0.0084507
5.42101e-20
0.0084507
1.89735e-19
0.0084507
4.87891e-19
0.0084507
8.40257e-19
0.0084507
3.25261e-19
0.0084507
1.00289e-18
0.0084507
1.5992e-18
0.0084507
1.81604e-18
0.0084507
3.71339e-18
0.0084507
1.83501e-17
0.0084507
1.30131e-16
0.0084507
7.13459e-16
0.0084507
1.11285e-14
0.0084507
5.92502e-14
0.0084507
-3.20123e-13
0.0084507
8.01185e-12
0.0084507
-4.64748e-13
0.0084507
2.63037e-10
0.0084507
2.39265e-10
0.0084507
1.27156e-08
0.00845064
1.08282e-07
0.0084502
8.61472e-08
0.00845265
3.381e-06
2.13493e-06
0.00844138
0.0084507
4.06576e-19
0.0084507
7.04731e-19
0.0084507
6.23416e-19
0.0084507
3.79471e-19
0.0084507
1.0842e-19
0.0084507
-8.67362e-19
0.0084507
-1.70762e-18
0.0084507
-2.19551e-18
0.0084507
-2.54788e-18
0.0084507
-2.95445e-18
0.0084507
2.95445e-18
0.0084507
9.16151e-18
0.0084507
3.30275e-16
0.0084507
2.45696e-15
0.0084507
7.65224e-15
0.0084507
2.71015e-14
0.0084507
1.16053e-12
0.0084507
4.06329e-12
0.0084507
2.93141e-11
0.0084507
2.5914e-10
0.0084507
2.4422e-09
0.00845071
1.95219e-08
0.00845068
1.19234e-08
0.00844984
7.94564e-07
4.10904e-06
0.00843304
0.0084507
1.6263e-19
0.0084507
1.0842e-19
0.0084507
2.43945e-19
0.0084507
-5.14996e-19
0.0084507
-2.98156e-19
0.0084507
-1.16552e-18
0.0084507
-1.73472e-18
0.0084507
-1.95156e-18
0.0084507
-2.30393e-18
0.0084507
-1.84314e-18
0.0084507
5.14996e-19
0.0084507
-7.94178e-18
0.0084507
1.1582e-16
0.0084507
1.31405e-16
0.0084507
-7.89299e-16
0.0084507
-3.82351e-14
0.0084507
3.13072e-13
0.0084507
-6.92512e-13
0.0084507
4.83672e-12
0.0084507
8.43424e-11
0.0084507
7.61304e-10
0.0084507
5.0364e-09
0.00845066
1.76516e-08
0.00845079
2.58904e-07
1.3013e-06
0.00844943
0.0084507
-2.43945e-19
0.0084507
-7.86047e-19
0.0084507
-3.52366e-19
0.0084507
2.71051e-20
0.0084507
3.79471e-19
0.0084507
3.79471e-19
0.0084507
5.96311e-19
0.0084507
5.69206e-19
0.0084507
4.87891e-19
0.0084507
1.16552e-18
0.0084507
2.6834e-18
0.0084507
-8.10441e-18
0.0084507
4.15792e-17
0.0084507
1.64013e-16
0.0084507
2.23779e-16
0.0084507
1.87404e-16
0.0084507
3.33433e-14
0.0084507
1.60038e-13
0.0084507
-1.27644e-12
0.0084507
2.24085e-11
0.0084507
1.72424e-10
0.0084507
1.06087e-09
0.00845069
7.90914e-09
0.0084507
7.55698e-08
1.94839e-07
0.00845162
0.0084507
4.60786e-19
0.0084507
4.06576e-19
0.0084507
6.50521e-19
0.0084507
8.67362e-19
0.0084507
8.94467e-19
0.0084507
5.69206e-19
0.0084507
9.48677e-19
0.0084507
9.75782e-19
0.0084507
9.21572e-19
0.0084507
8.13152e-19
0.0084507
2.1684e-19
0.0084507
4.06576e-19
0.0084507
8.13152e-18
0.0084507
1.69407e-17
0.0084507
-7.20994e-18
0.0084507
-2.41986e-15
0.0084507
5.43944e-16
0.0084507
-6.55483e-14
0.0084507
-2.06035e-12
0.0084507
6.61026e-12
0.0084507
4.08622e-12
0.0084507
2.8405e-10
0.0084507
1.01523e-09
0.00845075
5.27116e-09
7.85029e-08
0.00845045
0.0084507
1.0842e-19
0.0084507
-1.0842e-19
0.0084507
-5.14996e-19
0.0084507
-1.32815e-18
0.0084507
-9.75782e-19
0.0084507
-9.21572e-19
0.0084507
-4.60786e-19
0.0084507
-1.89735e-19
0.0084507
-2.43945e-19
0.0084507
-4.06576e-19
0.0084507
-7.58942e-19
0.0084507
-6.23416e-19
0.0084507
-8.40257e-19
0.0084507
1.53686e-17
0.0084507
2.1684e-17
0.0084507
1.22244e-17
0.0084507
1.86675e-15
0.0084507
9.98e-15
0.0084507
-2.45749e-14
0.0084507
7.74515e-13
0.0084507
5.00174e-12
0.0084507
8.77131e-11
0.0084507
2.72736e-10
0.0084507
2.95465e-09
2.46019e-08
0.00845066
0.0084507
-4.06576e-19
0.0084507
-9.75782e-19
0.0084507
-8.40257e-19
0.0084507
-1.32815e-18
0.0084507
-1.43657e-18
0.0084507
-1.38236e-18
0.0084507
-1.30104e-18
0.0084507
-2.19551e-18
0.0084507
-2.54788e-18
0.0084507
-2.24972e-18
0.0084507
-2.52077e-18
0.0084507
-2.60209e-18
0.0084507
-3.30682e-18
0.0084507
-4.60786e-19
0.0084507
9.02598e-18
0.0084507
5.91432e-17
0.0084507
7.36797e-16
0.0084507
-7.15123e-15
0.0084507
1.44691e-14
0.0084507
1.06065e-13
0.0084507
-4.9333e-13
0.0084507
2.69707e-11
0.0084507
-3.92849e-11
0.00845071
7.53686e-10
3.54492e-09
0.00845073
0.0084507
-1.35525e-19
0.0084507
-2.71051e-19
0.0084507
-1.6263e-19
0.0084507
-2.71051e-20
0.0084507
1.0842e-19
0.0084507
-3.79471e-19
0.0084507
-1.89735e-19
0.0084507
-1.02999e-18
0.0084507
-1.21973e-18
0.0084507
-1.95156e-18
0.0084507
-1.97867e-18
0.0084507
-1.73472e-18
0.0084507
-1.97867e-18
0.0084507
-1.89735e-18
0.0084507
2.27682e-18
0.0084507
2.95987e-17
0.0084507
2.2771e-16
0.0084507
-5.08325e-15
0.0084507
1.57542e-14
0.0084507
-8.4244e-14
0.0084507
4.0119e-13
0.0084507
5.80063e-12
0.0084507
1.99988e-11
0.0084507
3.62396e-11
-4.25679e-11
0.00845071
0.0084507
2.43945e-19
0.0084507
1.89735e-19
0.0084507
1.6263e-19
0.0084507
1.35525e-19
0.0084507
1.89735e-19
0.0084507
-5.96311e-19
0.0084507
-9.48677e-19
0.0084507
-1.24683e-18
0.0084507
-1.70762e-18
0.0084507
-2.05998e-18
0.0084507
-2.11419e-18
0.0084507
-2.1684e-18
0.0084507
-2.19551e-18
0.0084507
-2.27682e-18
0.0084507
-1.92446e-18
0.0084507
8.15862e-18
0.0084507
-2.6834e-18
0.0084507
2.14076e-16
0.0084507
4.49521e-15
0.0084507
1.19721e-14
0.0084507
-1.38108e-13
0.0084507
1.50535e-12
0.0084507
-1.1749e-12
0.0084507
4.3112e-11
-2.41923e-10
0.0084507
0.0084507
1.89735e-19
0.0084507
5.96311e-19
0.0084507
5.42101e-19
0.0084507
5.42101e-19
0.0084507
7.31836e-19
0.0084507
2.71051e-19
0.0084507
-3.79471e-19
0.0084507
-5.69206e-19
0.0084507
-5.42101e-19
0.0084507
-8.67362e-19
0.0084507
-8.40257e-19
0.0084507
-1.81604e-18
0.0084507
-2.49366e-18
0.0084507
-2.95445e-18
0.0084507
-3.08998e-18
0.0084507
-2.92735e-18
0.0084507
-2.4259e-17
0.0084507
-1.64094e-16
0.0084507
2.28403e-15
0.0084507
-1.25877e-14
0.0084507
-2.08836e-15
0.0084507
-3.81226e-13
0.0084507
-3.52173e-12
0.0084507
1.69673e-11
-3.50428e-13
0.0084507
0.0084507
7.52316e-36
0.0084507
2.43945e-19
0.0084507
1.89735e-19
0.0084507
5.42101e-20
0.0084507
1.0842e-19
0.0084507
2.71051e-20
0.0084507
5.42101e-19
0.0084507
8.13152e-19
0.0084507
9.48677e-19
0.0084507
-8.13152e-20
0.0084507
-1.6263e-19
0.0084507
-1.5992e-18
0.0084507
-2.03288e-18
0.0084507
-2.57498e-18
0.0084507
-2.71051e-18
0.0084507
-3.55076e-18
0.0084507
-9.75782e-18
0.0084507
-6.3995e-17
0.0084507
4.56856e-16
0.0084507
-3.7859e-15
0.0084507
-2.36383e-15
0.0084507
-2.15677e-13
0.0084507
-1.41202e-12
0.0084507
7.56654e-12
-8.16213e-12
0.0084507
0.0084507
-3.52366e-19
0.0084507
-7.58942e-19
0.0084507
-1.68051e-18
0.0084507
-2.03288e-18
0.0084507
-2.41235e-18
0.0084507
-2.62919e-18
0.0084507
-2.11419e-18
0.0084507
-2.24972e-18
0.0084507
-1.92446e-18
0.0084507
-1.6263e-18
0.0084507
-1.0842e-18
0.0084507
-6.77626e-19
0.0084507
-2.98156e-19
0.0084507
-3.79471e-19
0.0084507
1.0842e-19
0.0084507
8.13152e-20
0.0084507
1.57209e-18
0.0084507
8.23994e-18
0.0084507
1.29996e-16
0.0084507
-5.94468e-16
0.0084507
3.15633e-15
0.0084507
-1.81048e-14
0.0084507
4.47618e-14
0.0084507
2.29851e-12
-7.73073e-14
0.0084507
0.0084507
0.0084507
0.0084507
0.0084507
0.0084507
0.0084507
0.0084507
0.0084507
0.0084507
0.0084507
0.0084507
0.0084507
0.0084507
0.0084507
0.0084507
0.0084507
0.0084507
0.0084507
0.0084507
0.0084507
0.0084507
0.0084507
0.0084507
0.0084507
0.0084507
0.00289044
0.00435803
-9.32288e-05
0.00297728
-0.0016276
0.0015395
-0.00190563
0.000276576
-0.00189259
-6.23429e-06
-0.00189227
5.7711e-05
-0.00240014
0.000596148
-0.00296168
0.000486872
-0.00333882
0.000314899
-0.00350662
0.000167655
-0.00354536
3.9395e-05
-0.00353068
-9.46933e-06
-0.00351492
1.95637e-06
-0.00346753
1.43235e-05
-0.00345506
-5.98547e-06
-0.00353709
2.78973e-05
-0.00361691
5.03365e-05
-0.00366679
4.3982e-05
-0.00367806
6.24425e-06
-0.00367385
2.29138e-07
-0.00366692
-5.29757e-06
-0.00365749
-6.89501e-06
-0.00365662
-8.62596e-07
-0.00364794
-3.83016e-06
-0.00364885
8.30977e-07
-0.00365144
-2.80427e-06
-0.0036562
6.54945e-06
-0.00365703
-1.32748e-07
-0.00366477
4.22605e-06
-0.00366971
-1.92053e-06
-0.00369152
7.10781e-07
-0.00369555
-7.50942e-06
-0.00371446
-6.35996e-06
-0.00373642
-1.15474e-05
-0.00369798
-3.77793e-05
-0.00362685
-6.16141e-05
-0.00354446
-8.05803e-05
-0.00347155
-8.64257e-05
-0.00329069
-0.000168432
-0.00310469
-0.000175057
-0.00292298
-0.000181752
-0.00267302
-0.000237641
-0.00239008
-0.000276142
-0.00207294
-0.000293629
-0.00173901
-0.000316456
-0.00146949
-0.000268641
-0.00115821
-0.000310791
-0.000754051
-0.000402459
-0.000380944
-0.000377633
3.47867e-05
-0.000417582
0.000448804
-0.000417585
0.000814661
-0.000364646
0.00117665
-0.000362494
0.00151741
-0.000341023
0.00184389
-0.000322167
0.00215352
-0.000306437
0.00243818
-0.000280534
0.00269797
-0.000255382
0.00294048
-0.000237202
0.00316617
-0.00022052
0.00337256
-0.000202891
0.00356127
-0.000185964
0.00373484
-0.000171313
0.00389485
-0.000157841
0.00404318
-0.000146549
0.0041793
-0.000134713
0.00430272
-0.00012306
0.00441493
-0.000112218
0.00451826
-0.000103154
0.00461365
-9.50142e-05
0.00470259
-8.83371e-05
0.00478582
-8.21833e-05
0.00486373
-7.66058e-05
0.00493605
-7.06832e-05
0.00500296