/*--------------------------------*- C++ -*----------------------------------*\
| =========                 |                                                 |
| \\      /  F ield         | OpenFOAM: The Open Source CFD Toolbox           |
|  \\    /   O peration     | Version:  v2106                                 |
|   \\  /    A nd           | Website:  www.openfoam.com                      |
|    \\/     M anipulation  |                                                 |
\*---------------------------------------------------------------------------*/
FoamFile
{
    version     2.0;
    format      ascii;
    arch        "LSB;label=32;scalar=64";
    class       volScalarField;
    location    "15";
    object      T;
}
// * * * * * * * * * * * * * * * * * * * * * * * * * * * * * * * * * * * * * //

dimensions      [0 0 0 1 0 0 0];

internalField   nonuniform List<scalar> 
5250
(
1
1
1
1
1
1
1
1
1.00002
1.00015
1.00132
1.0123
1.09757
1.45781
2.70838
2.71844
2.54563
2.5165
2.55974
2.55264
2.55664
2.56618
2.56599
2.56305
2.55756
1
1
1
1
1
1
1
1
1.00002
1.00016
1.00137
1.01228
1.09361
1.44831
2.66907
2.71737
2.5291
2.50067
2.54607
2.54215
2.54765
2.55848
2.56077
2.55848
2.55367
1
1
1
1
1
1
1
1
1.00002
1.00014
1.00125
1.01111
1.0864
1.42785
2.57516
2.71946
2.4926
2.46638
2.51768
2.51753
2.52614
2.54167
2.54756
2.54656
2.54201
1
1
1
1
1
1
1
1
1.00001
1.00012
1.0011
1.00974
1.0772
1.39595
2.42106
2.72849
2.43641
2.41792
2.47173
2.48296
2.49981
2.52201
2.53305
2.53476
2.53166
1
1
1
1
1
1
1
1
1.00001
1.0001
1.0009
1.00795
1.06482
1.35124
2.18597
2.75134
2.36426
2.35362
2.4087
2.43593
2.46449
2.49304
2.51481
2.51835
2.51583
1
1
1
1
1
1
1
1
1.00001
1.00008
1.00072
1.00622
1.05218
1.30196
1.99093
2.83487
2.28571
2.26104
2.31485
2.36551
2.4167
2.45598
2.49139
2.49865
2.49543
1
1
1
1
1
1
1
1
1.00001
1.00006
1.00054
1.00469
1.04147
1.25659
1.89384
2.97527
2.32838
2.25546
2.2846
2.30108
2.34193
2.40479
2.45422
2.47348
2.4691
1
1
1
1
1
1
1
1
1
1.00004
1.00039
1.00347
1.03226
1.21297
1.79137
3.12196
2.45494
2.29665
2.30195
2.28869
2.30387
2.35036
2.41065
2.4426
2.42513
1
1
1
1
1
1
1
1
1
1.00003
1.00031
1.00277
1.02536
1.17697
1.69364
3.11056
2.54193
2.37367
2.34263
2.29876
2.27133
2.28494
2.33467
2.39536
2.35809
1
1
1
1
1
1
1
1
1
1.00002
1.00023
1.00206
1.01905
1.14106
1.59787
2.99979
2.52745
2.47244
2.42255
2.34938
2.28091
2.2601
2.27642
2.32994
2.2074
1
1
1
1
1
1
1
1
1
1.00002
1.00017
1.00151
1.01397
1.10907
1.49867
2.81818
2.54977
2.46257
2.42217
2.37835
2.3078
2.23428
2.18507
2.16571
1.94832
1
1
1
1
1
1
1
1
1
1.00002
1.00013
1.00117
1.01023
1.07836
1.40031
2.61819
2.59244
2.41747
2.38131
2.38004
2.34278
2.25358
2.15701
2.11263
1.79774
1
1
1
1
1
1
1
1
1
1.00001
1.00007
1.00067
1.00567
1.0488
1.29279
2.07405
2.6813
2.3073
2.31976
2.35109
2.33867
2.28202
2.15951
2.08873
1.79935
1
1
1
1
1
1
1
1
1
1
1.00004
1.00037
1.00328
1.03156
1.21047
1.78878
2.86724
2.29323
2.25687
2.29464
2.31306
2.278
2.17831
2.07435
1.82412
1
1
1
1
1
1
1
1
1
1
1.00003
1.00025
1.00224
1.02054
1.14946
1.61965
2.91159
2.29595
2.25827
2.25099
2.26902
2.25326
2.17888
2.07946
1.8798
1
1
1
1
1
1
1
1
1
1
1.00002
1.00015
1.00136
1.01256
1.09878
1.47041
2.79522
2.41263
2.22452
2.19014
2.21001
2.21395
2.17222
2.09151
1.94775
1
1
1
1
1
1
1
1
1
1
1.00001
1.00009
1.00082
1.00706
1.05784
1.32879
2.49912
2.57907
2.23472
2.14966
2.1601
2.17398
2.15038
2.08948
1.98514
1
1
1
1
1
1
1
1
1
1
1.00001
1.00004
1.0004
1.00343
1.03103
1.20875
1.80149
2.81447
2.24881
2.17844
2.13654
2.13504
2.11716
2.07427
1.99711
1
1
1
1
1
1
1
1
1
1
1
1.00003
1.00024
1.00202
1.01729
1.1224
1.5449
2.78239
2.32923
2.1902
2.1053
2.09594
2.08103
2.05082
1.9929
1
1
1
1
1
1
1
1
1
1
1
1.00001
1.00009
1.00086
1.00728
1.06278
1.38277
2.54622
2.47709
2.17264
2.06323
2.05828
2.04827
2.02462
1.98089
1
1
1
1
1
1
1
1
1
1
1
1.00001
1.00005
1.00043
1.00358
1.02925
1.18816
1.82549
2.74316
2.1917
2.12366
2.05087
2.02833
2.0024
1.96464
1
1
1
1
1
1
1
1
1
1
1
1
1.00006
1.00003
1.00138
1.01054
1.08844
1.54905
2.6426
2.34828
2.11272
2.0247
2.00101
1.97542
1.94369
1
1
1
1
1
1
1
1
1
1
1
1
1.00001
1.00008
1.00069
1.00557
1.04402
1.26118
2.25338
2.58841
2.13642
2.05159
1.99519
1.96081
1.92561
1
1
1
1
1
1
1
1
1
1
1
1
1.00001
1.00009
1.00006
1.00166
1.01213
1.10434
1.71768
2.68923
2.25072
2.08507
1.9847
1.94872
1.91252
1
1
1
1
1
1
1
1
1
1
1
1
1
1.00002
1.00011
1.00093
1.00746
1.05699
1.3121
2.50367
2.45135
2.10282
2.00232
1.95201
1.91287
1
1
1
1
1
1
1
1
1
1
1
1
1
1.00001
1.00007
1.00004
1.00203
1.0145
1.11472
1.84232
2.71608
2.21239
2.06192
1.95376
1.91657
1
1
1
1
1
1
1
1
1
1
1
1
1
1
1.00002
1.00013
1.00108
1.00846
1.06299
1.33557
2.50814
2.39271
2.05771
1.97403
1.92601
1
1
1
1
1
1
1
1
1
1
1
1
1
1
1.00001
1.00004
1.0003
1.0031
1.01338
1.10541
1.82812
2.67222
2.17782
2.02949
1.93347
1
1
1
1
1
1
1
1
1
1
1
1
1
1
1
1.00002
1.00013
1.00108
1.00811
1.06038
1.33212
2.45141
2.36018
2.03174
1.96418
1
1
1
1
1
1
1
1
1
1
1
1
1
1
1
1.00001
1.00006
1.00015
1.00175
1.01035
1.09159
1.75121
2.62941
2.17932
2.00827
1
1
1
1
1
1
1
1
1
1
1
1
1
1
1
1
1.00001
1.0001
1.00085
1.00664
1.05134
1.31019
2.39727
2.37796
2.03293
1
1
1
1
1
1
1
1
1
1
1
1
1
1
1
1
1
1.00003
1.00018
1.0016
1.01138
1.09601
1.64035
2.52388
2.20312
1
1
1
1
1
1
1
1
1
1
1
1
1
1
1
1
1
1.00001
1.00008
1.00068
1.00525
1.04177
1.2615
2.11236
2.42303
1
1
1
1
1
1
1
1
1
1
1
1
1
1
1
1
1
1
1.00002
1.00015
1.00133
1.00939
1.07936
1.48633
2.37306
1
1
1
1
1
1
1
1
1
1
1
1
1
1
1
1
1
1
1.00001
1.00007
1.00051
1.00354
1.02732
1.18528
1.75575
1
1
1
1
1
1
1
1
1
1
1
1
1
1
1
1
1
1
1
1.00001
1.0001
1.00082
1.00623
1.05089
1.31437
1
1
1
1
1
1
1
1
1
1
1
1
1
1
1
1
1
1
1
1.00001
1.00009
1.00007
1.00121
1.01091
1.08352
1
1
1
1
1
1
1
1
1
1
1
1
1
1
1
1
1
1
1
1
1.00001
1.00007
1.0005
1.00352
1.01974
1
1
1
1
1
1
1
1
1
1
1
1
1
1
1
1
1
1
1
1
1
1.00002
1.00012
1.00075
1.0059
1
1
1
1
1
1
1
1
1
1
1
1
1
1
1
1
1
1
1
1
1
1
1.00004
1.00017
1.00106
1
1
1
1
1
1
1
1
1
1
1
1
1
1
1
1
1
1
1
1
1
1
1.00001
1.00006
0.999931
1
1
1
1
1
1
1
1
1
1
1
1
1
1
1
1
1
1
1
1
1
1
1
1.00002
1.00007
1
1
1
1
1
1
1
1
1
1
1
1
1
1
1
1
1
1
1
1
1
1
1
1
1.00001
1
1
1
1
1
1
1
1
1
1
1
1
1
1
1
1
1
1
1
1
1
1
1
1
1
1
1
1
1
1
1
1
1
1
1
1
1
1
1
1
1
1
1
1
1
1
1
1
1
1
1
1
1
1
1
1
1
1
1
1
1
1
1
1
1
1
1
1
1
1
1
1
1
1
1
1
1
1
1
1
1
1
1
1
1
1
1
1
1
1
1
1
1
1
1
1
1
1
1
1
1
1
1
1
1
1
1
1
1
1
1
1
1
1
1
1
1
1
1
1
1
1
1
1
1
1
1
1
1
1
1
1
1
1
1
1
1
1
1
1
1
1
1
1
1
1
1
1
1
1
1
1
1
1
1
1
1
1
1
1
1
1
1
1
1
1
1
1
1
1
1
1
1
1
1
2.16713
2.44065
2.78298
2.74179
2.71717
2.77575
2.82159
2.83595
2.62789
2.55014
2.53989
2.54553
2.55137
2.5649
2.58432
2.51433
2.44961
2.41931
2.41381
2.4137
2.42229
2.42527
2.42647
2.42549
2.42612
2.4196
2.41408
2.41284
2.41081
2.40897
2.40743
2.4025
2.40922
2.4119
2.42513
2.47444
2.51356
2.54773
2.57861
2.62732
2.66171
2.68894
2.72659
2.75695
2.79579
2.8176
2.82467
2.82981
2.84084
2.84183
2.86258
2.84919
2.83854
2.82626
2.81146
2.79908
2.78487
2.77045
2.75581
2.74075
2.72656
2.71287
2.69931
2.68567
2.67257
2.65951
2.64701
2.63534
2.62366
2.61202
2.60062
2.58916
2.57768
2.56618
2.55483
2.54372
2.53277
2.52272
2.51274
2.50334
2.49394
2.48496
2.47594
2.46731
2.4586
2.45025
2.44182
2.43372
2.42549
2.41753
2.40945
2.40183
2.39406
2.3868
2.37924
2.37143
2.36345
2.35224
2.3489
2.35306
2.15417
2.38522
2.52183
2.70627
2.78311
2.81859
2.93644
3.10171
2.88926
2.81201
2.80385
2.86065
2.87783
2.90324
2.91277
2.83301
2.79173
2.76958
2.76933
2.77075
2.77693
2.78103
2.7815
2.78026
2.78275
2.77523
2.76908
2.76516
2.75899
2.75623
2.75433
2.74898
2.75722
2.76393
2.76398
2.81198
2.84579
2.86823
2.88494
2.91374
2.92921
2.9352
2.93797
2.9644
2.96834
2.95258
2.93474
2.91888
2.8899
2.8639
2.83115
2.79142
2.75692
2.72949
2.70288
2.67486
2.64243
2.6139
2.59205
2.57011
2.54706
2.52637
2.50876
2.49119
2.47469
2.45793
2.44229
2.42789
2.414
2.40069
2.38771
2.3753
2.36284
2.35103
2.33915
2.32835
2.31777
2.30835
2.29905
2.29091
2.28297
2.27582
2.2687
2.26211
2.25543
2.24914
2.24276
2.23689
2.23093
2.22545
2.21994
2.21493
2.21016
2.20552
2.20062
2.19544
2.18978
2.18126
2.17921
2.1843
1.92217
2.11752
2.27436
2.51555
2.64043
2.69111
2.71958
2.84539
2.98428
2.99906
3.02308
2.99799
2.93815
2.97549
3.03268
3.08827
2.98592
2.94009
2.932
2.92624
2.94676
2.95765
2.96202
2.9595
2.95774
2.95058
2.94182
2.94191
2.94309
2.94072
2.94467
2.9362
2.94558
2.95115
2.9519
2.97617
3.01183
3.01801
3.09609
3.08046
3.05582
3.04227
3.00392
2.95453
2.88504
2.80546
2.74107
2.67806
2.6279
2.57769
2.53228
2.48443
2.4433
2.41817
2.39772
2.37715
2.3548
2.33198
2.31373
2.29583
2.27756
2.25994
2.2443
2.23034
2.21805
2.20597
2.19443
2.18286
2.17106
2.16
2.1499
2.14002
2.1302
2.12052
2.1115
2.10257
2.09347
2.08475
2.07603
2.06814
2.06068
2.0541
2.04791
2.0425
2.03721
2.03234
2.02751
2.02278
2.01796
2.01303
2.00798
2.00293
1.99828
1.9939
1.98949
1.98531
1.98086
1.97337
1.97347
1.98038
1.76705
1.84534
1.95988
2.15764
2.36752
2.512
2.50669
2.54477
2.6626
2.79837
2.87601
2.93778
2.9305
2.90484
2.89526
2.9724
3.01164
3.01645
3.02721
3.01871
3.00708
2.96485
2.93987
2.95004
2.95198
2.9523
2.94701
2.94111
2.93627
2.93136
2.93706
2.93272
2.96682
2.99453
3.06896
3.09324
3.08229
3.06531
3.00961
2.92435
2.80852
2.71017
2.63338
2.55803
2.50809
2.44746
2.38484
2.34502
2.32796
2.29475
2.27072
2.25002
2.2274
2.20535
2.18478
2.17151
2.15687
2.14378
2.13319
2.1215
2.10901
2.09602
2.0832
2.07121
2.06064
2.05184
2.04353
2.03503
2.0262
2.01718
2.00836
1.99985
1.99141
1.98335
1.97516
1.96783
1.96092
1.95399
1.94692
1.93988
1.93285
1.92633
1.91986
1.91409
1.9086
1.90362
1.89918
1.89516
1.89121
1.88717
1.88308
1.8792
1.87532
1.87123
1.86694
1.8625
1.85771
1.85039
1.84844
1.85521
1.75067
1.75803
1.80884
1.90879
2.04666
2.2301
2.27874
2.24108
2.33249
2.46649
2.58336
2.69139
2.78259
2.78188
2.77158
2.77937
2.81995
2.86906
2.91098
2.95351
2.97051
2.96422
2.95367
2.94754
2.93927
2.93571
2.94148
2.9406
2.93702
2.93306
2.92737
2.94681
2.97077
3.00481
2.99796
2.95926
2.87601
2.76285
2.62752
2.54608
2.4456
2.39173
2.33309
2.27077
2.23108
2.18872
2.1566
2.14099
2.12735
2.10332
2.09804
2.09071
2.07836
2.06063
2.05153
2.04216
2.03501
2.02784
2.02018
2.01072
1.99947
1.9893
1.97932
1.9707
1.96359
1.95662
1.9494
1.94203
1.93439
1.92672
1.91904
1.9114
1.90369
1.89666
1.89052
1.88439
1.87821
1.87186
1.86527
1.85865
1.85221
1.84627
1.84065
1.83517
1.82968
1.82452
1.81964
1.81534
1.81131
1.80722
1.80315
1.79912
1.79558
1.79193
1.7881
1.78408
1.77961
1.77344
1.76934
1.77556
1.7875
1.73047
1.75119
1.79621
1.86587
1.9484
2.03341
2.01857
2.09323
2.20723
2.31436
2.39956
2.49764
2.54481
2.55003
2.56917
2.61207
2.66851
2.71621
2.76829
2.82092
2.84529
2.87117
2.88371
2.89503
2.89619
2.90098
2.90165
2.90491
2.91503
2.92072
2.93317
2.92068
2.87932
2.80661
2.70551
2.57486
2.43313
2.31556
2.2418
2.16111
2.13558
2.09986
2.06212
2.03331
2.02588
2.01509
2.00564
1.98222
1.97969
1.99292
1.98786
1.97913
1.97128
1.96229
1.95634
1.95272
1.94905
1.94367
1.93657
1.92567
1.91926
1.91453
1.90855
1.90142
1.89385
1.88563
1.87879
1.87321
1.86778
1.86224
1.85639
1.85023
1.8438
1.83697
1.82973
1.82351
1.81805
1.81266
1.8072
1.80167
1.796
1.79016
1.78414
1.77823
1.77279
1.76811
1.76405
1.76011
1.75608
1.75206
1.74802
1.74436
1.74061
1.73662
1.73236
1.72759
1.72169
1.71571
1.72143
1.85074
1.75422
1.72294
1.72952
1.76264
1.7971
1.8364
1.8295
1.84727
1.91368
2.00975
2.09113
2.17313
2.24417
2.29946
2.31749
2.36068
2.41577
2.47564
2.5286
2.58938
2.63094
2.67645
2.71239
2.75033
2.77201
2.80284
2.81481
2.83355
2.86614
2.85999
2.84515
2.80832
2.71168
2.54479
2.35176
2.21079
2.08089
2.01781
1.9545
1.92543
1.92116
1.90953
1.91241
1.92397
1.94425
1.93498
1.92317
1.89794
1.89983
1.90281
1.90546
1.91594
1.91528
1.90932
1.90409
1.89783
1.89422
1.89277
1.89079
1.88689
1.87903
1.87412
1.86867
1.86147
1.85497
1.84961
1.84468
1.84001
1.83527
1.8301
1.82427
1.81761
1.81016
1.80338
1.79828
1.79319
1.78789
1.78231
1.77642
1.77031
1.76432
1.75873
1.75332
1.74816
1.74352
1.73929
1.735
1.7306
1.72606
1.72144
1.71664
1.7123
1.70809
1.70376
1.6993
1.69444
1.68849
1.68221
1.68774
1.90217
1.80611
1.73217
1.72525
1.73079
1.73513
1.74455
1.72149
1.71486
1.73551
1.79062
1.8638
1.92649
1.98596
2.04394
2.05066
2.07059
2.12266
2.19079
2.25001
2.32855
2.3723
2.42443
2.46892
2.523
2.56323
2.61609
2.64631
2.68778
2.76224
2.75927
2.70633
2.59794
2.41812
2.19046
2.05255
1.93973
1.85567
1.81022
1.76096
1.75249
1.74346
1.73402
1.74147
1.76459
1.79497
1.83033
1.8925
1.88815
1.87301
1.84669
1.84813
1.85556
1.86775
1.88239
1.88055
1.87476
1.86652
1.86548
1.86502
1.86348
1.85907
1.85138
1.84605
1.84065
1.83707
1.83345
1.82913
1.82364
1.81741
1.81049
1.80401
1.79885
1.79368
1.78827
1.78231
1.77599
1.76998
1.76441
1.75886
1.75339
1.7479
1.74243
1.7369
1.73162
1.72664
1.72193
1.71712
1.7123
1.70754
1.70299
1.69837
1.69385
1.68959
1.68521
1.68066
1.67567
1.66953
1.66276
1.66801
1.92182
1.85641
1.77159
1.74791
1.71703
1.71682
1.70838
1.68215
1.64931
1.63506
1.65199
1.69015
1.73175
1.76772
1.80731
1.82755
1.84061
1.87353
1.92374
1.97806
2.03334
2.09366
2.14343
2.19443
2.24689
2.29968
2.36225
2.42039
2.54248
2.60894
2.57968
2.48149
2.32707
2.10452
1.93008
1.84183
1.78174
1.7269
1.69252
1.65907
1.63999
1.6247
1.6118
1.61832
1.63705
1.65923
1.6935
1.74502
1.80109
1.8925
1.87857
1.84435
1.83735
1.83713
1.84004
1.84913
1.85989
1.85521
1.85326
1.85024
1.84515
1.84294
1.8402
1.83595
1.83159
1.82645
1.82147
1.81684
1.81171
1.80574
1.80008
1.79486
1.78932
1.78309
1.77598
1.76955
1.76465
1.75996
1.75507
1.74991
1.74444
1.73869
1.73268
1.72689
1.72158
1.7169
1.71265
1.70829
1.70383
1.69934
1.69479
1.69014
1.6854
1.68059
1.67569
1.67062
1.66517
1.65872
1.65175
1.65714
1.92075
1.87169
1.81455
1.78315
1.73383
1.72485
1.70842
1.67921
1.64532
1.60706
1.5968
1.60918
1.6308
1.64966
1.67262
1.68923
1.6903
1.69929
1.72295
1.76064
1.80256
1.84415
1.88596
1.92902
1.97403
2.02431
2.09116
2.16978
2.35328
2.48046
2.36499
2.2392
2.07161
1.88269
1.79971
1.73433
1.69148
1.65142
1.61857
1.59775
1.5778
1.55859
1.54805
1.55018
1.55629
1.56598
1.58969
1.62614
1.67107
1.7408
1.82081
1.90406
1.87788
1.84277
1.81939
1.82315
1.82848
1.84282
1.84472
1.84198
1.83559
1.82751
1.82729
1.82652
1.82489
1.82119
1.81489
1.80673
1.80121
1.79692
1.79227
1.78688
1.78091
1.77468
1.76797
1.76305
1.75844
1.75355
1.74831
1.74274
1.737
1.73119
1.72558
1.72031
1.71499
1.7104
1.7063
1.70207
1.69775
1.69336
1.68886
1.68423
1.67943
1.67446
1.66941
1.66435
1.6591
1.65294
1.6464
1.652
1.91535
1.8736
1.8319
1.80589
1.76501
1.74509
1.71987
1.68828
1.65281
1.61559
1.57739
1.57448
1.5827
1.5937
1.60041
1.60869
1.60886
1.60727
1.60652
1.61938
1.64507
1.67599
1.70434
1.73568
1.7717
1.82013
1.88883
2.01773
2.30827
2.26072
2.16657
2.0516
1.90427
1.79576
1.72959
1.67908
1.6407
1.60362
1.57341
1.55443
1.53469
1.52518
1.52242
1.5181
1.51342
1.51777
1.5299
1.54624
1.57153
1.61556
1.66976
1.74569
1.88031
1.88362
1.84252
1.83066
1.81364
1.81657
1.81971
1.82713
1.8257
1.82419
1.82003
1.81763
1.81465
1.81018
1.80416
1.79633
1.79106
1.78761
1.78328
1.77839
1.77277
1.76674
1.7603
1.75421
1.74959
1.74488
1.73996
1.73483
1.72958
1.72424
1.7188
1.71325
1.70748
1.70285
1.69891
1.6949
1.69086
1.68676
1.68251
1.6781
1.67352
1.66877
1.66388
1.65889
1.65364
1.64747
1.64082
1.64651
1.90359
1.86758
1.83056
1.80783
1.78368
1.76447
1.73715
1.70508
1.66861
1.63091
1.59261
1.56867
1.56439
1.56585
1.57265
1.57398
1.57089
1.55979
1.54952
1.55015
1.56009
1.57665
1.59559
1.61668
1.64711
1.69441
1.78321
1.95414
2.2415
2.09548
2.01992
1.93082
1.82343
1.76648
1.71557
1.67204
1.63191
1.59163
1.56597
1.54224
1.51794
1.50602
1.50119
1.50086
1.49932
1.50276
1.50498
1.50424
1.5133
1.52907
1.55814
1.6061
1.67894
1.76626
1.89785
1.87218
1.82314
1.79985
1.78788
1.79133
1.80139
1.80672
1.80276
1.79826
1.79238
1.78463
1.78066
1.77673
1.77162
1.76571
1.76255
1.75901
1.75481
1.7497
1.74409
1.73779
1.73316
1.72874
1.72417
1.71946
1.71471
1.70996
1.70522
1.70033
1.69555
1.69148
1.68767
1.6838
1.67988
1.67585
1.67172
1.66752
1.6632
1.65876
1.65419
1.6495
1.64451
1.63854
1.63215
1.63819
1.88864
1.85849
1.82742
1.8036
1.78695
1.7733
1.75343
1.72672
1.69198
1.65258
1.6134
1.58101
1.56438
1.55929
1.56137
1.559
1.55413
1.54617
1.53322
1.51527
1.51632
1.52409
1.54053
1.55863
1.59037
1.6574
1.79404
2.09802
2.07709
2.00196
1.94539
1.87741
1.80554
1.75959
1.71778
1.67479
1.64116
1.614
1.58749
1.55981
1.54817
1.53567
1.51987
1.50458
1.4926
1.49432
1.49337
1.48614
1.48667
1.48818
1.49869
1.51776
1.55169
1.60236
1.68059
1.78104
1.86432
1.82206
1.79796
1.76183
1.77014
1.77259
1.78083
1.7783
1.77424
1.76405
1.75303
1.75409
1.75353
1.75185
1.74767
1.74218
1.73641
1.73019
1.72509
1.71992
1.7145
1.70915
1.70455
1.70047
1.69665
1.69286
1.68901
1.68507
1.68107
1.67723
1.67341
1.66954
1.66561
1.66159
1.65747
1.65329
1.64902
1.64474
1.64042
1.63604
1.63136
1.62564
1.61954
1.62614
1.87737
1.84695
1.82097
1.79354
1.78077
1.7713
1.75591
1.73507
1.70925
1.67768
1.6427
1.60538
1.5773
1.56649
1.55701
1.55515
1.55134
1.54403
1.53215
1.5177
1.49525
1.50163
1.5149
1.53555
1.58723
1.69933
1.88874
2.0737
1.96269
1.94236
1.90393
1.8582
1.81064
1.77404
1.736
1.70422
1.67308
1.64756
1.62214
1.60095
1.58248
1.56257
1.5396
1.53015
1.51929
1.50341
1.48525
1.47184
1.47474
1.4739
1.47416
1.47018
1.47695
1.49357
1.536
1.60088
1.69424
1.84778
1.83508
1.78134
1.77062
1.74755
1.75301
1.75426
1.75777
1.75784
1.75598
1.74701
1.74437
1.74327
1.74037
1.73559
1.72946
1.72303
1.71572
1.71117
1.7067
1.70216
1.69755
1.6929
1.68815
1.68371
1.67944
1.67513
1.67079
1.66633
1.66172
1.65695
1.65196
1.64695
1.64249
1.63812
1.63387
1.62967
1.62544
1.6211
1.61638
1.61056
1.6042
1.61123
1.87339
1.8348
1.81051
1.78563
1.77088
1.76419
1.75248
1.7363
1.71674
1.69217
1.66434
1.63693
1.60412
1.5818
1.56847
1.55807
1.5523
1.5453
1.5356
1.52141
1.49911
1.5079
1.5197
1.55257
1.64051
1.81167
2.07317
1.99205
1.93221
1.90836
1.87979
1.8535
1.82455
1.79335
1.75942
1.72986
1.70063
1.67685
1.65305
1.63128
1.61032
1.58802
1.57024
1.55348
1.53424
1.51374
1.49745
1.487
1.47306
1.45976
1.45367
1.44532
1.44442
1.44282
1.45629
1.48734
1.54332
1.62257
1.72097
1.8567
1.82062
1.78336
1.72864
1.73159
1.73862
1.74734
1.74749
1.74643
1.74157
1.73352
1.726
1.72342
1.72028
1.71636
1.71092
1.70332
1.6986
1.6954
1.69183
1.68797
1.684
1.67996
1.67585
1.67159
1.66723
1.66274
1.65802
1.65293
1.64731
1.64239
1.63786
1.63326
1.62863
1.62393
1.61911
1.61405
1.60848
1.60169
1.59375
1.60069
1.87582
1.8328
1.80419
1.77745
1.75961
1.7541
1.74509
1.73347
1.71666
1.69537
1.6712
1.64944
1.6257
1.59794
1.58538
1.56978
1.55999
1.54974
1.53851
1.5234
1.52121
1.52797
1.54568
1.61084
1.7554
2.04912
1.99346
1.91244
1.90284
1.88967
1.87445
1.85672
1.83559
1.81116
1.78455
1.75608
1.72987
1.70562
1.6807
1.65744
1.63446
1.61161
1.59227
1.57175
1.54738
1.5325
1.51767
1.4999
1.48212
1.46338
1.44781
1.43177
1.4299
1.4265
1.43201
1.43787
1.45517
1.49484
1.558
1.64893
1.78407
1.8235
1.77436
1.76211
1.71915
1.72159
1.72943
1.73654
1.73406
1.72954
1.72188
1.71506
1.71054
1.70671
1.703
1.69876
1.69353
1.68918
1.68627
1.68308
1.67959
1.6759
1.672
1.66783
1.66339
1.65882
1.65408
1.64903
1.6435
1.63857
1.63421
1.62971
1.62502
1.62012
1.61493
1.60933
1.60311
1.59561
1.58666
1.59386
1.88073
1.83374
1.80196
1.7787
1.75143
1.74324
1.73564
1.7254
1.71199
1.69477
1.67517
1.65419
1.63455
1.6111
1.5909
1.58424
1.57161
1.55587
1.54631
1.54056
1.5462
1.55794
1.60924
1.72992
1.99388
1.97489
1.90095
1.89899
1.8934
1.88666
1.87762
1.86481
1.84785
1.82669
1.80292
1.77775
1.75214
1.72706
1.70157
1.6774
1.6526
1.63053
1.60971
1.58516
1.56325
1.54799
1.52853
1.51094
1.49233
1.47862
1.46475
1.45225
1.44044
1.42659
1.41968
1.4191
1.42314
1.43447
1.45833
1.50577
1.57692
1.67136
1.82976
1.80992
1.76512
1.73763
1.70308
1.70664
1.71078
1.71477
1.71401
1.71151
1.70516
1.69774
1.69314
1.69044
1.68712
1.68321
1.67846
1.67458
1.67195
1.66918
1.66619
1.66282
1.65896
1.65465
1.64989
1.64442
1.63881
1.63409
1.62931
1.62445
1.6195
1.61438
1.60898
1.60316
1.59673
1.58895
1.57942
1.58689
1.88936
1.84056
1.80341
1.78199
1.75384
1.74024
1.73406
1.72144
1.70695
1.69241
1.67555
1.65642
1.63659
1.6164
1.59316
1.58879
1.58012
1.55796
1.56073
1.56659
1.5757
1.61842
1.72385
1.96741
1.98328
1.91372
1.90715
1.89695
1.89282
1.88853
1.88187
1.87113
1.85537
1.83566
1.81287
1.78984
1.76573
1.74134
1.71685
1.69233
1.66849
1.64608
1.62204
1.59676
1.58044
1.56023
1.53863
1.52456
1.50913
1.49352
1.48035
1.46586
1.45259
1.43869
1.41975
1.41287
1.41249
1.41656
1.41487
1.42983
1.46284
1.52319
1.60982
1.70279
1.80772
1.77226
1.74178
1.68703
1.68823
1.69779
1.7038
1.70328
1.70222
1.69848
1.69052
1.68062
1.67747
1.67495
1.6719
1.66881
1.66562
1.66329
1.66072
1.65756
1.6539
1.64975
1.64492
1.63924
1.63255
1.62713
1.62189
1.6167
1.6115
1.60626
1.60084
1.59505
1.58863
1.58085
1.57132
1.57916
1.90917
1.85161
1.80746
1.78428
1.75924
1.73826
1.73395
1.72206
1.70519
1.6895
1.67569
1.65853
1.63904
1.61741
1.5946
1.58657
1.57219
1.57143
1.57626
1.58671
1.62648
1.72238
1.93042
2.0058
1.92932
1.91787
1.89669
1.88842
1.88559
1.88109
1.87438
1.86469
1.8515
1.83522
1.81584
1.79432
1.77065
1.74737
1.72412
1.70106
1.67938
1.65618
1.63018
1.61379
1.59443
1.57334
1.55686
1.54007
1.5244
1.50905
1.49424
1.48029
1.46515
1.44911
1.43562
1.42434
1.40952
1.40477
1.40185
1.40763
1.41501
1.4389
1.4739
1.53793
1.62174
1.76606
1.77317
1.72216
1.71182
1.67993
1.68329
1.6897
1.69453
1.69265
1.68832
1.68106
1.67138
1.66926
1.66788
1.66574
1.66334
1.66052
1.65743
1.65338
1.64873
1.64399
1.63877
1.63266
1.62544
1.6182
1.61322
1.60838
1.60345
1.59844
1.5932
1.58751
1.58118
1.57346
1.56396
1.57205
1.91641
1.86941
1.82127
1.79001
1.76661
1.736
1.73102
1.72424
1.7084
1.68923
1.6761
1.66132
1.64298
1.62085
1.59619
1.58143
1.57477
1.58413
1.59404
1.62304
1.71335
1.8744
2.03686
1.93919
1.92934
1.90666
1.88215
1.87827
1.87388
1.86794
1.86091
1.8524
1.84191
1.82868
1.81255
1.79345
1.77201
1.74999
1.72698
1.70558
1.68409
1.66067
1.64226
1.62227
1.60048
1.58547
1.56878
1.55052
1.53487
1.52084
1.50576
1.4905
1.47481
1.45949
1.44711
1.43352
1.42285
1.41254
1.39789
1.39875
1.4005
1.40049
1.40572
1.43316
1.48227
1.5529
1.64583
1.7841
1.75936
1.7174
1.69134
1.66423
1.66691
1.67429
1.67742
1.67704
1.67388
1.66866
1.66182
1.65923
1.65741
1.65502
1.65214
1.64849
1.64318
1.63674
1.63095
1.6248
1.61742
1.61097
1.60651
1.60191
1.59709
1.59205
1.58674
1.58092
1.57443
1.56662
1.55692
1.56509
1.97323
1.89166
1.83893
1.79795
1.77204
1.73875
1.72674
1.72608
1.71352
1.69319
1.67796
1.66571
1.64804
1.62612
1.59947
1.57666
1.58568
1.60122
1.62312
1.69885
1.85344
2.05908
1.96334
1.94365
1.9158
1.88526
1.87961
1.87223
1.86375
1.85597
1.84802
1.83982
1.83062
1.81947
1.80606
1.7903
1.77276
1.75341
1.73374
1.71282
1.69074
1.67299
1.65312
1.6299
1.61238
1.59613
1.57832
1.56057
1.54565
1.5302
1.51472
1.4987
1.4826
1.46776
1.45289
1.44079
1.4298
1.41782
1.40869
1.39813
1.3877
1.39075
1.38637
1.38982
1.40732
1.43859
1.4909
1.57244
1.6845
1.75394
1.70891
1.69359
1.65612
1.65691
1.66496
1.67037
1.67031
1.66828
1.66203
1.65408
1.65064
1.64823
1.64546
1.64194
1.63757
1.63148
1.62434
1.61808
1.61108
1.60454
1.59977
1.59514
1.59035
1.58537
1.58013
1.57437
1.56776
1.55985
1.55015
1.55838
1.9649
1.90681
1.86107
1.81795
1.78166
1.74635
1.7226
1.72356
1.71662
1.69965
1.67894
1.66844
1.65571
1.63526
1.60104
1.59231
1.60559
1.62554
1.69048
1.82968
2.07675
2.00441
1.96324
1.90613
1.89001
1.88654
1.87759
1.86577
1.85289
1.8437
1.83589
1.82812
1.82018
1.81125
1.80081
1.78824
1.77358
1.75712
1.73944
1.72128
1.70239
1.68353
1.66432
1.64488
1.62604
1.60671
1.59087
1.57419
1.56021
1.545
1.53022
1.5152
1.49965
1.48459
1.47124
1.45664
1.44322
1.43251
1.42169
1.41205
1.40125
1.38911
1.38265
1.37228
1.37644
1.38154
1.39743
1.4383
1.51241
1.60262
1.74957
1.73641
1.69356
1.67247
1.64325
1.64558
1.65271
1.65275
1.65141
1.64675
1.64028
1.63646
1.63273
1.62995
1.6267
1.6227
1.61701
1.61018
1.60193
1.5947
1.59021
1.58575
1.5811
1.57629
1.5712
1.56572
1.55949
1.5519
1.5424
1.5508
2.04724
1.95622
1.86495
1.82983
1.79562
1.76201
1.7265
1.72341
1.72002
1.70519
1.6824
1.66783
1.65946
1.64238
1.61445
1.61996
1.63536
1.69092
1.81881
2.07021
2.02562
1.97391
1.90872
1.89063
1.88863
1.88158
1.87176
1.85979
1.84706
1.8368
1.82957
1.82258
1.81505
1.80689
1.79754
1.78669
1.77411
1.75993
1.74453
1.7283
1.71106
1.69329
1.67457
1.65569
1.63642
1.61802
1.59964
1.584
1.56989
1.55551
1.54057
1.52483
1.50924
1.49408
1.4793
1.46625
1.45332
1.44302
1.43151
1.42063
1.40914
1.39846
1.3857
1.36825
1.35544
1.35653
1.36215
1.37181
1.40576
1.45927
1.54248
1.63539
1.73536
1.7055
1.67557
1.64448
1.62458
1.62916
1.63768
1.63658
1.63297
1.62574
1.62248
1.61943
1.61582
1.61145
1.606
1.59948
1.5916
1.58187
1.57738
1.57357
1.56955
1.56522
1.56051
1.55529
1.54947
1.54237
1.53346
1.54237
2.22851
1.94491
1.89903
1.84028
1.81229
1.78016
1.74011
1.72346
1.72402
1.71196
1.69143
1.6702
1.65784
1.64459
1.64447
1.65422
1.70025
1.81741
2.06682
2.04874
1.99805
1.92439
1.90517
1.90126
1.89339
1.88363
1.87296
1.86204
1.85031
1.83759
1.82746
1.81969
1.81175
1.80338
1.79439
1.78452
1.77369
1.76155
1.74807
1.73336
1.71765
1.70088
1.68356
1.66526
1.64641
1.6285
1.6107
1.59429
1.57931
1.56457
1.5493
1.53335
1.51593
1.50097
1.48369
1.47144
1.46101
1.44998
1.43706
1.42526
1.41546
1.40348
1.38963
1.37476
1.35698
1.3479
1.35117
1.35127
1.35601
1.37816
1.41688
1.47439
1.55657
1.70719
1.70888
1.66343
1.64931
1.6152
1.6151
1.61755
1.62033
1.61879
1.61533
1.61323
1.60919
1.60332
1.59421
1.58507
1.57886
1.57177
1.56715
1.56339
1.55944
1.55511
1.55035
1.54487
1.53892
1.53206
1.52363
1.5328
2.43413
2.08751
1.91363
1.84998
1.81135
1.78399
1.75104
1.71957
1.72012
1.71398
1.69648
1.67774
1.66385
1.66748
1.67843
1.71991
1.82641
2.05654
2.08288
2.02946
1.94382
1.92337
1.91964
1.91083
1.90038
1.8886
1.87742
1.86563
1.85319
1.84009
1.82802
1.81845
1.80982
1.80084
1.79144
1.78143
1.77083
1.75957
1.74751
1.73446
1.72033
1.70523
1.68904
1.67205
1.65432
1.63642
1.61932
1.60318
1.5877
1.57263
1.5571
1.54141
1.5248
1.50714
1.48821
1.47426
1.46518
1.45453
1.44315
1.43141
1.41904
1.40665
1.39404
1.38114
1.36791
1.35428
1.33795
1.3387
1.34214
1.3448
1.35442
1.37748
1.42759
1.50159
1.58902
1.706
1.67822
1.64513
1.62214
1.59204
1.59442
1.60199
1.60125
1.59906
1.59619
1.59102
1.58357
1.57123
1.56369
1.55988
1.55611
1.55185
1.54854
1.54482
1.54046
1.53491
1.52871
1.52186
1.51333
1.52254
2.30614
2.26902
1.9554
1.88028
1.81091
1.78987
1.76348
1.72875
1.71304
1.71142
1.69371
1.68403
1.68883
1.70103
1.74397
1.84772
2.0588
2.11211
2.05493
1.96731
1.94097
1.93807
1.92877
1.91714
1.90462
1.89187
1.87924
1.86653
1.85377
1.84093
1.82806
1.81642
1.80612
1.79601
1.78606
1.77601
1.76589
1.75559
1.74482
1.73348
1.72105
1.70748
1.69267
1.67679
1.66015
1.64311
1.62612
1.61035
1.59436
1.57941
1.56358
1.54734
1.53108
1.51331
1.49591
1.48058
1.46936
1.45807
1.44814
1.4366
1.42292
1.41068
1.39928
1.38649
1.3715
1.35923
1.34806
1.34096
1.33611
1.33882
1.33571
1.3388
1.35769
1.39013
1.44291
1.52666
1.66824
1.67758
1.63479
1.62301
1.59239
1.58048
1.58252
1.58715
1.58564
1.58231
1.574
1.56268
1.5498
1.54679
1.54479
1.54159
1.53798
1.53426
1.52992
1.52441
1.51761
1.51041
1.5025
1.51108
1.50923
2.3051
2.13626
1.87735
1.84275
1.7954
1.77345
1.74418
1.71802
1.7039
1.69961
1.70271
1.71779
1.7654
1.8729
2.08316
2.14251
2.08155
1.99565
1.96109
1.95732
1.94732
1.9345
1.92103
1.90805
1.89478
1.8814
1.86809
1.85482
1.84172
1.82868
1.81635
1.80454
1.79353
1.78241
1.77251
1.76245
1.75208
1.74136
1.7301
1.7181
1.70522
1.69125
1.67641
1.6608
1.64479
1.62857
1.61232
1.59611
1.58001
1.56432
1.54842
1.53204
1.51524
1.49865
1.48162
1.47054
1.45975
1.44877
1.43821
1.42742
1.41549
1.40178
1.38692
1.37147
1.36511
1.35782
1.35041
1.342
1.33254
1.32619
1.32612
1.3305
1.3394
1.36096
1.40601
1.48327
1.56668
1.69078
1.66326
1.62308
1.59934
1.56653
1.56711
1.57081
1.57084
1.568
1.55924
1.54921
1.54269
1.53804
1.53297
1.52653
1.52163
1.51704
1.51214
1.50588
1.49869
1.49034
1.49798
1.12798
1.76734
2.41269
2.06367
1.87265
1.81283
1.77483
1.74912
1.71459
1.70341
1.7139
1.73119
1.77881
1.89275
2.11753
2.17916
2.11277
2.02508
1.98598
1.98086
1.96969
1.95577
1.94061
1.92716
1.9137
1.89956
1.88487
1.87003
1.85576
1.84191
1.82834
1.81516
1.80225
1.78942
1.77684
1.76458
1.754
1.74324
1.73228
1.72095
1.70914
1.69667
1.68349
1.66955
1.65517
1.64048
1.62578
1.611
1.59615
1.58116
1.56599
1.55047
1.53445
1.51809
1.50047
1.48701
1.47308
1.46275
1.45307
1.44318
1.4322
1.42098
1.40912
1.39615
1.38324
1.37232
1.36741
1.36057
1.35251
1.34365
1.33662
1.32731
1.32928
1.32876
1.33399
1.34647
1.38312
1.43954
1.52363
1.64799
1.65917
1.62379
1.60946
1.5905
1.56323
1.56376
1.56385
1.55899
1.55028
1.5427
1.53602
1.52817
1.52256
1.51673
1.51176
1.50579
1.49867
1.49012
1.4795
1.48732
1.05161
1.31242
2.31107
2.27542
1.96977
1.86957
1.78397
1.74369
1.70325
1.71133
1.73308
1.78605
1.90445
2.1353
2.21159
2.14055
2.05063
2.00724
2.00335
1.99322
1.97938
1.9638
1.94596
1.93106
1.91621
1.90076
1.88473
1.86916
1.85426
1.83958
1.82498
1.81056
1.79636
1.78223
1.76848
1.75465
1.74297
1.73198
1.72064
1.70885
1.69681
1.68458
1.672
1.65923
1.64643
1.63368
1.62091
1.60799
1.5946
1.58055
1.56589
1.55056
1.53448
1.51771
1.50241
1.49042
1.4786
1.46722
1.4574
1.44737
1.43725
1.42697
1.41639
1.40541
1.39346
1.38639
1.379
1.37414
1.3683
1.36184
1.35489
1.34789
1.34036
1.33205
1.33395
1.33284
1.34402
1.37746
1.42048
1.47989
1.55561
1.68898
1.6721
1.63109
1.61306
1.58167
1.55698
1.55612
1.55518
1.55059
1.5436
1.5352
1.52401
1.51667
1.51187
1.50628
1.49963
1.4908
1.4781
1.4855
1.00884
1.08032
1.44955
2.17977
2.07296
1.84014
1.79605
1.74185
1.72144
1.73512
1.78896
1.91855
2.15363
2.2226
2.15258
2.06044
2.01213
2.01139
2.00434
1.99207
1.97652
1.9578
1.93883
1.92301
1.90725
1.89137
1.87527
1.85964
1.84442
1.82931
1.81418
1.79921
1.78439
1.76956
1.75518
1.74095
1.72843
1.71796
1.70743
1.69661
1.68546
1.67413
1.66261
1.65132
1.6407
1.63013
1.61923
1.60795
1.5962
1.58391
1.57093
1.55726
1.54271
1.52727
1.51428
1.5029
1.49151
1.48147
1.47134
1.46199
1.4526
1.44308
1.43352
1.42355
1.41445
1.40768
1.40094
1.39644
1.39098
1.38542
1.37905
1.37355
1.36784
1.36425
1.35748
1.35919
1.3643
1.37065
1.38128
1.41464
1.46082
1.53948
1.66909
1.7194
1.68638
1.64984
1.61839
1.57391
1.56408
1.56229
1.55718
1.5493
1.53911
1.52753
1.51922