/*--------------------------------*- C++ -*----------------------------------*\
| =========                 |                                                 |
| \\      /  F ield         | OpenFOAM: The Open Source CFD Toolbox           |
|  \\    /   O peration     | Version:  v2106                                 |
|   \\  /    A nd           | Website:  www.openfoam.com                      |
|    \\/     M anipulation  |                                                 |
\*---------------------------------------------------------------------------*/
FoamFile
{
    version     2.0;
    format      ascii;
    arch        "LSB;label=32;scalar=64";
    class       volVectorField;
    location    "15";
    object      U;
}
// * * * * * * * * * * * * * * * * * * * * * * * * * * * * * * * * * * * * * //

dimensions      [0 1 -1 0 0 0 0];

internalField   nonuniform List<vector> 
5250
(
(3 -3.16795e-14 0)
(3 6.83131e-13 0)
(3 7.0564e-13 0)
(3 4.4507e-11 0)
(3 2.07037e-10 0)
(3 -2.92725e-09 0)
(3 6.55358e-09 0)
(3 -1.11511e-07 0)
(3.00001 2.03684e-07 0)
(2.99995 -4.40622e-06 0)
(3.0005 5.79572e-06 0)
(2.99899 -0.000123105 0)
(3.0268 -0.00258663 0)
(3.02896 0.00365125 0)
(2.51082 0.00841933 0)
(0.805604 0.0371656 0)
(0.477695 0.0178476 0)
(0.545961 0.0230061 0)
(0.485099 0.0250055 0)
(0.411208 0.0272325 0)
(0.357509 0.0250171 0)
(0.282911 0.0309615 0)
(0.211564 0.033659 0)
(0.131401 0.0333783 0)
(0.04776 0.039377 0)
(3 -2.20087e-14 0)
(3 6.3957e-13 0)
(3 1.22984e-12 0)
(3 4.36457e-11 0)
(3 2.25636e-10 0)
(3 -2.82313e-09 0)
(3 5.22535e-08 0)
(3 -1.14629e-07 0)
(3 1.11972e-06 0)
(3.00001 -3.11927e-06 0)
(3.00016 6.07294e-06 0)
(3.00063 0.000107859 0)
(3.01586 -0.00674965 0)
(3.03167 0.0114035 0)
(2.52107 0.0285899 0)
(0.814966 0.115416 0)
(0.460045 0.0476986 0)
(0.538399 0.0587552 0)
(0.476508 0.0586224 0)
(0.400796 0.066001 0)
(0.345853 0.0803801 0)
(0.278873 0.0846015 0)
(0.211442 0.089826 0)
(0.126249 0.101721 0)
(0.0436057 0.109785 0)
(3 1.14686e-14 0)
(3 -2.84346e-14 0)
(3 -2.33357e-13 0)
(3 2.61523e-12 0)
(3 -2.28788e-10 0)
(3 4.05793e-10 0)
(3 -1.16767e-09 0)
(3 3.61004e-08 0)
(3 1.25912e-07 0)
(3.00001 3.34172e-06 0)
(3.00013 5.32785e-06 0)
(3.00074 0.000329368 0)
(3.0128 -0.00128559 0)
(3.04007 0.0184543 0)
(2.55141 0.050177 0)
(0.856166 0.201507 0)
(0.430965 0.0819809 0)
(0.531302 0.102745 0)
(0.465941 0.108325 0)
(0.387199 0.122864 0)
(0.341911 0.123669 0)
(0.278917 0.13576 0)
(0.200602 0.157477 0)
(0.121366 0.170476 0)
(0.0401669 0.179434 0)
(3 2.80815e-14 0)
(3 -1.92936e-14 0)
(3 1.30964e-12 0)
(3 -5.91246e-12 0)
(3 1.00371e-10 0)
(3 1.13368e-10 0)
(3 7.38496e-09 0)
(3 3.12195e-08 0)
(3 4.15325e-07 0)
(3.00001 3.52005e-06 0)
(3.0001 2.16134e-05 0)
(3.00074 0.00035158 0)
(3.01045 0.000862997 0)
(3.05061 0.0248116 0)
(2.60108 0.0724923 0)
(0.941607 0.299104 0)
(0.392235 0.111825 0)
(0.52163 0.13887 0)
(0.450048 0.147069 0)
(0.384594 0.157765 0)
(0.338496 0.170009 0)
(0.267225 0.197465 0)
(0.197275 0.220107 0)
(0.122817 0.23525 0)
(0.0436286 0.246099 0)
(3 -7.19309e-14 0)
(3 9.41841e-14 0)
(3 8.76679e-13 0)
(3 4.15713e-12 0)
(3 8.36122e-11 0)
(3 1.69943e-10 0)
(3 7.52474e-09 0)
(3 9.44978e-09 0)
(3 5.82468e-07 0)
(3.00001 1.77653e-06 0)
(3.00007 4.12683e-05 0)
(3.00078 0.000262161 0)
(3.00697 0.00272732 0)
(3.06264 0.0286276 0)
(2.67189 0.0822688 0)
(1.09063 0.404326 0)
(0.355672 0.158529 0)
(0.520671 0.179336 0)
(0.443593 0.18533 0)
(0.37677 0.205655 0)
(0.33193 0.219726 0)
(0.267987 0.249974 0)
(0.206088 0.274569 0)
(0.132279 0.299404 0)
(0.0424963 0.319578 0)
(3 -4.44246e-14 0)
(3 6.78145e-14 0)
(3 1.09382e-12 0)
(3 5.6773e-13 0)
(3 9.27415e-11 0)
(3 1.23828e-10 0)
(3 8.28566e-09 0)
(3 -1.20545e-08 0)
(3 6.7993e-07 0)
(3.00001 -3.18395e-06 0)
(3.00004 4.75643e-05 0)
(3.00082 -1.05346e-05 0)
(3.00386 0.00317008 0)
(3.06911 0.0268324 0)
(2.75588 0.066366 0)
(1.34181 0.502212 0)
(0.343463 0.209321 0)
(0.53453 0.219713 0)
(0.452996 0.226701 0)
(0.37689 0.246011 0)
(0.33926 0.261107 0)
(0.281226 0.300127 0)
(0.214261 0.337619 0)
(0.133316 0.373717 0)
(0.0515934 0.395592 0)
(3 -9.91449e-14 0)
(3 6.4133e-14 0)
(3 -3.55344e-13 0)
(3 -1.19099e-11 0)
(3 1.46785e-10 0)
(3 1.53096e-11 0)
(3 8.84667e-09 0)
(3 2.09382e-08 0)
(3 6.96076e-07 0)
(3.00001 -5.61166e-07 0)
(3.00003 5.90171e-05 0)
(3.00059 -0.000557919 0)
(3.00163 0.00288718 0)
(3.0683 0.023066 0)
(2.82652 0.0440614 0)
(1.6928 0.573569 0)
(0.372231 0.286477 0)
(0.563303 0.269171 0)
(0.484013 0.273779 0)
(0.388529 0.292045 0)
(0.361095 0.298198 0)
(0.289927 0.355521 0)
(0.239411 0.395039 0)
(0.150408 0.441162 0)
(0.0707856 0.481979 0)
(3 -3.24323e-14 0)
(3 1.34346e-13 0)
(3 -9.44573e-13 0)
(3 4.304e-12 0)
(3 -6.21353e-11 0)
(3 -1.43803e-10 0)
(3 9.69772e-09 0)
(3 2.24347e-08 0)
(3 5.45213e-07 0)
(3.00001 2.5759e-06 0)
(2.99999 3.43202e-05 0)
(3.00071 0.000235429 0)
(2.99994 0.0022194 0)
(3.06342 0.018758 0)
(2.88287 0.0279434 0)
(2.06483 0.560725 0)
(0.472077 0.390013 0)
(0.61764 0.335655 0)
(0.54476 0.330195 0)
(0.427631 0.345297 0)
(0.392739 0.345416 0)
(0.31141 0.411638 0)
(0.26239 0.464334 0)
(0.172639 0.525774 0)
(0.0733487 0.590162 0)
(3 2.08367e-14 0)
(3 8.72222e-14 0)
(3 2.17112e-12 0)
(3 1.30065e-11 0)
(3 -7.89797e-11 0)
(3 1.70583e-10 0)
(3 5.36548e-09 0)
(3 1.46453e-08 0)
(3 2.91435e-07 0)
(3.00002 1.65974e-06 0)
(2.99993 2.09881e-05 0)
(3.00091 0.000162268 0)
(2.99882 0.00164373 0)
(3.05475 0.0155871 0)
(2.93006 0.0436133 0)
(2.25379 0.456407 0)
(0.603878 0.468863 0)
(0.674773 0.414845 0)
(0.616608 0.401513 0)
(0.49823 0.409041 0)
(0.447675 0.397257 0)
(0.357503 0.466778 0)
(0.326044 0.521851 0)
(0.227821 0.60219 0)
(0.149319 0.717137 0)
(3 3.86635e-14 0)
(3 -2.42821e-14 0)
(3 1.89444e-12 0)
(3 5.19184e-12 0)
(3 -1.44589e-10 0)
(3 7.79001e-10 0)
(3 1.74869e-09 0)
(3 2.85404e-08 0)
(3 1.56311e-07 0)
(3.00002 2.04789e-06 0)
(2.99993 1.52981e-05 0)
(3.00078 0.000161672 0)
(2.99851 0.00137642 0)
(3.04365 0.013562 0)
(2.97781 0.0629878 0)
(2.40311 0.360105 0)
(0.69691 0.539947 0)
(0.725741 0.479166 0)
(0.689428 0.465715 0)
(0.586213 0.488372 0)
(0.516142 0.471057 0)
(0.423482 0.530152 0)
(0.371254 0.60491 0)
(0.299787 0.713438 0)
(0.102218 0.954573 0)
(3 1.61627e-14 0)
(3 3.23833e-14 0)
(3 1.17098e-12 0)
(3 6.91915e-12 0)
(3 5.95287e-11 0)
(3 5.16734e-10 0)
(3 -3.17697e-09 0)
(3 3.26291e-08 0)
(3 -1.54241e-08 0)
(3.00001 1.9452e-06 0)
(2.99994 6.04434e-06 0)
(3.00063 0.000137279 0)
(2.99855 0.000849022 0)
(3.03337 0.0113113 0)
(3.01756 0.0688684 0)
(2.54274 0.292167 0)
(0.844362 0.589541 0)
(0.701634 0.491742 0)
(0.72141 0.521803 0)
(0.673094 0.552135 0)
(0.606613 0.54512 0)
(0.512521 0.599381 0)
(0.460173 0.6797 0)
(0.481627 0.806549 0)
(0.42448 1.13443 0)
(3 7.86946e-15 0)
(3 4.18291e-14 0)
(3 6.98783e-13 0)
(3 5.03724e-12 0)
(3 5.21912e-11 0)
(3 3.89896e-10 0)
(3 -2.33725e-09 0)
(3 4.30015e-08 0)
(3 -9.45124e-08 0)
(3 1.94352e-06 0)
(3.00001 -7.5141e-07 0)
(3.0001 9.93997e-05 0)
(3.00103 0.000774853 0)
(3.01195 0.00158346 0)
(3.0516 0.067526 0)
(2.68181 0.261497 0)
(1.07376 0.669297 0)
(0.655516 0.497668 0)
(0.722428 0.525408 0)
(0.729385 0.62516 0)
(0.697404 0.627192 0)
(0.615592 0.673389 0)
(0.58251 0.736258 0)
(0.68738 0.845547 0)
(0.683681 1.02739 0)
(3 -1.98589e-15 0)
(3 4.877e-14 0)
(3 2.54997e-13 0)
(3 -4.45876e-12 0)
(3 2.98673e-11 0)
(3 -5.81653e-10 0)
(3 2.13074e-09 0)
(3 -1.23328e-08 0)
(3 1.3568e-07 0)
(3 1.39413e-06 0)
(3.00001 -1.33621e-06 0)
(3.00004 0.000135473 0)
(3.00083 -0.00159169 0)
(3.00223 0.00725637 0)
(3.07517 0.0534834 0)
(2.83247 0.210447 0)
(1.47372 0.763011 0)
(0.594677 0.518041 0)
(0.708043 0.536836 0)
(0.733382 0.621571 0)
(0.749622 0.673621 0)
(0.728444 0.729098 0)
(0.710201 0.766653 0)
(0.785492 0.857429 0)
(0.879475 0.89836 0)
(3 -7.97142e-16 0)
(3 1.81335e-14 0)
(3 1.03986e-13 0)
(3 1.07109e-12 0)
(3 9.9498e-12 0)
(3 1.52663e-10 0)
(3 6.15627e-10 0)
(3 1.01501e-08 0)
(3 6.67116e-08 0)
(3 -2.25244e-07 0)
(3 5.81093e-06 0)
(3.00004 4.05757e-05 0)
(3.00035 2.09294e-05 0)
(3.00034 0.00415806 0)
(3.06453 0.0337282 0)
(2.93943 0.118718 0)
(2.07887 0.825159 0)
(0.661372 0.584659 0)
(0.732828 0.559953 0)
(0.748012 0.615367 0)
(0.767637 0.676741 0)
(0.795147 0.752645 0)
(0.814935 0.788704 0)
(0.878618 0.841076 0)
(0.962835 0.86265 0)
(3 -2.41054e-16 0)
(3 1.07714e-15 0)
(3 -4.13345e-15 0)
(3 -6.26387e-13 0)
(3 1.23803e-12 0)
(3 1.21824e-11 0)
(3 -2.87576e-10 0)
(3 9.14685e-09 0)
(3 1.18217e-08 0)
(3 4.99962e-07 0)
(3.00002 2.47188e-06 0)
(2.99993 3.09821e-05 0)
(3.00082 0.000216364 0)
(2.99867 0.00226913 0)
(3.04778 0.022477 0)
(2.98498 0.0899569 0)
(2.45007 0.698519 0)
(0.866726 0.686871 0)
(0.796258 0.604977 0)
(0.788318 0.624352 0)
(0.800127 0.671797 0)
(0.832071 0.742468 0)
(0.879732 0.792213 0)
(0.949771 0.845581 0)
(1.03371 0.848547 0)
(3 8.25904e-17 0)
(3 1.32912e-14 0)
(3 4.92949e-14 0)
(3 1.09518e-12 0)
(3 6.70825e-12 0)
(3 2.05964e-12 0)
(3 5.93817e-10 0)
(3 2.03421e-09 0)
(3 3.21442e-08 0)
(3 1.17774e-07 0)
(3.00001 2.76218e-06 0)
(2.99995 1.35067e-05 0)
(3.00055 0.00020309 0)
(2.99889 0.00144477 0)
(3.03016 0.0166042 0)
(3.02664 0.10468 0)
(2.68891 0.5401 0)
(1.17693 0.792935 0)
(0.842103 0.65415 0)
(0.84374 0.653588 0)
(0.847057 0.683387 0)
(0.87197 0.73819 0)
(0.926558 0.783053 0)
(0.997998 0.833436 0)
(1.09147 0.838173 0)
(3 5.15642e-16 0)
(3 9.35877e-15 0)
(3 -6.17721e-14 0)
(3 1.16991e-12 0)
(3 1.42409e-12 0)
(3 7.44273e-11 0)
(3 1.50958e-09 0)
(3 -2.25272e-09 0)
(3 3.90001e-08 0)
(3 -1.69646e-08 0)
(3 2.07413e-06 0)
(3.00001 3.74339e-06 0)
(3.00009 0.000125538 0)
(3.0007 0.000516932 0)
(3.00661 0.00840604 0)
(3.07275 0.0759625 0)
(2.88844 0.393313 0)
(1.66505 0.887107 0)
(0.846765 0.695095 0)
(0.87239 0.689843 0)
(0.889714 0.707916 0)
(0.908023 0.748706 0)
(0.95766 0.77885 0)
(1.02283 0.819062 0)
(1.11906 0.822621 0)
(3 2.47682e-16 0)
(3 1.84437e-15 0)
(3 2.84313e-14 0)
(3 1.87741e-13 0)
(3 2.4013e-12 0)
(3 1.6679e-11 0)
(3 1.76135e-10 0)
(3 1.15654e-09 0)
(3 1.25267e-08 0)
(3 1.04158e-07 0)
(3 9.7594e-07 0)
(3.00003 8.23232e-06 0)
(2.99987 7.46623e-05 0)
(3.0015 0.000640456 0)
(2.99698 0.00563327 0)
(3.08406 0.0477555 0)
(3.01196 0.233059 0)
(2.29088 0.950423 0)
(0.963801 0.767725 0)
(0.927352 0.720137 0)
(0.935932 0.718457 0)
(0.954853 0.741703 0)
(0.996538 0.765203 0)
(1.05468 0.796847 0)
(1.1398 0.804953 0)
(3 2.19032e-16 0)
(3 1.23389e-14 0)
(3 1.29587e-13 0)
(3 -2.44838e-14 0)
(3 3.9555e-12 0)
(3 -7.71822e-12 0)
(3 2.44228e-10 0)
(3 2.25237e-09 0)
(3 -1.77497e-09 0)
(3 7.79675e-08 0)
(3 -1.22914e-07 0)
(3 5.66854e-06 0)
(3.00002 1.93524e-05 0)
(3.00026 6.0479e-05 0)
(3.00145 0.0037533 0)
(3.02427 -0.0504596 0)
(3.05083 0.161966 0)
(2.68803 0.770294 0)
(1.28437 0.858002 0)
(0.987522 0.759329 0)
(0.984771 0.73935 0)
(1.00042 0.751633 0)
(1.03439 0.767466 0)
(1.08248 0.790894 0)
(1.15859 0.792856 0)
(3 2.84095e-16 0)
(3 1.67426e-15 0)
(3 1.28672e-14 0)
(3 8.86153e-14 0)
(3 8.55565e-13 0)
(3 5.97642e-12 0)
(3 5.9038e-11 0)
(3 5.00829e-10 0)
(3 3.93529e-09 0)
(3 3.68225e-08 0)
(3 3.01224e-07 0)
(2.99998 2.76611e-06 0)
(3.00015 2.31259e-05 0)
(2.99926 0.000208385 0)
(3.00578 0.00173766 0)
(2.98212 0.0154587 0)
(3.14985 0.11266 0)
(2.96884 0.541331 0)
(1.83115 0.926531 0)
(1.02664 0.798565 0)
(1.02851 0.766334 0)
(1.0451 0.770855 0)
(1.07527 0.776601 0)
(1.11539 0.788267 0)
(1.17728 0.787963 0)
(3 2.70352e-15 0)
(3 -2.56449e-15 0)
(3 3.02601e-14 0)
(3 -8.1974e-14 0)
(3 1.5245e-12 0)
(3 1.43659e-11 0)
(3 -7.13439e-12 0)
(3 5.29238e-10 0)
(3 -2.52082e-09 0)
(3 2.82529e-08 0)
(3 5.42519e-07 0)
(3 -6.43348e-07 0)
(3.00001 1.28698e-05 0)
(3.00004 6.72377e-06 0)
(3.0005 0.000238705 0)
(3.0034 0.0117946 0)
(3.04109 -0.21446 0)
(3.06839 0.359695 0)
(2.44012 1.02926 0)
(1.18841 0.878394 0)
(1.07731 0.823148 0)
(1.08427 0.788262 0)
(1.10852 0.785029 0)
(1.14629 0.788847 0)
(1.19993 0.784884 0)
(3 1.11398e-16 0)
(3 4.40806e-16 0)
(3 3.94842e-15 0)
(3 2.80652e-14 0)
(3 2.52014e-13 0)
(3 2.05531e-12 0)
(3 1.52064e-11 0)
(3 1.34052e-10 0)
(3 1.05729e-09 0)
(3 9.08977e-09 0)
(3 7.89293e-08 0)
(3 6.0056e-07 0)
(3.00003 5.53904e-06 0)
(2.99999 4.06606e-05 0)
(2.99829 0.000388818 0)
(3.01486 0.00317061 0)
(2.94226 0.026136 0)
(3.23364 0.209133 0)
(2.91752 0.792829 0)
(1.64333 0.956309 0)
(1.14459 0.852131 0)
(1.13494 0.802787 0)
(1.15165 0.796216 0)
(1.1818 0.793 0)
(1.22556 0.787956 0)
(3 -1.20268e-15 0)
(3 1.25615e-15 0)
(3 5.95711e-15 0)
(3 9.26661e-14 0)
(3 5.53271e-14 0)
(3 3.07328e-12 0)
(3 1.09038e-11 0)
(3 6.21694e-11 0)
(3 4.89008e-09 0)
(3 -2.85865e-09 0)
(3 1.0636e-07 0)
(3 3.21065e-08 0)
(3 3.99982e-06 0)
(3.00002 4.64349e-05 0)
(3.00006 -4.08571e-05 0)
(3.00093 0.000675883 0)
(3.00499 0.0143543 0)
(3.06724 -0.315226 0)
(3.07555 0.58624 0)
(2.26938 1.0737 0)
(1.22425 0.893827 0)
(1.17969 0.847931 0)
(1.19397 0.811689 0)
(1.21578 0.802675 0)
(1.25218 0.793973 0)
(3 -8.67785e-17 0)
(3 8.17902e-17 0)
(3 1.02595e-15 0)
(3 9.31769e-15 0)
(3 6.29881e-14 0)
(3 5.75874e-13 0)
(3 4.34378e-12 0)
(3 3.49338e-11 0)
(3 2.90233e-10 0)
(3 2.02365e-09 0)
(3 1.849e-08 0)
(3 1.43016e-07 0)
(3 1.18084e-06 0)
(3.00005 9.54913e-06 0)
(2.99998 6.28613e-05 0)
(2.99794 0.000643671 0)
(3.01764 0.00505744 0)
(2.9271 0.040378 0)
(3.31564 0.344097 0)
(2.89839 0.971593 0)
(1.60912 0.970611 0)
(1.24962 0.898935 0)
(1.23706 0.835768 0)
(1.25324 0.824271 0)
(1.28171 0.811084 0)
(3 -5.30476e-17 0)
(3 -6.81877e-16 0)
(3 1.85852e-15 0)
(3 -3.14351e-15 0)
(3 2.99769e-14 0)
(3 6.52661e-14 0)
(3 1.7662e-12 0)
(3 1.81576e-11 0)
(3 6.07554e-11 0)
(3 2.12254e-09 0)
(3 1.02142e-09 0)
(3 1.25557e-07 0)
(3 1.96547e-07 0)
(3 5.1342e-06 0)
(3.00002 6.10735e-05 0)
(3.00008 7.14277e-06 0)
(3.00128 0.000787252 0)
(3.00752 0.0181545 0)
(3.07681 -0.331411 0)
(3.10596 0.720734 0)
(2.24138 1.07145 0)
(1.33069 0.913593 0)
(1.28146 0.872256 0)
(1.29857 0.837639 0)
(1.31788 0.823174 0)
(3 4.63958e-17 0)
(3 1.33364e-16 0)
(3 7.92208e-16 0)
(3 2.62182e-15 0)
(3 1.17239e-14 0)
(3 1.07859e-13 0)
(3 8.32901e-13 0)
(3 7.10604e-12 0)
(3 5.43741e-11 0)
(3 4.432e-10 0)
(3 3.61889e-09 0)
(3 2.98461e-08 0)
(3 2.24547e-07 0)
(3 4.11776e-07 0)
(3.00002 4.43405e-06 0)
(3 0.000100706 0)
(2.99768 0.00088159 0)
(3.0228 0.00688495 0)
(2.91877 0.0526535 0)
(3.36155 0.43422 0)
(2.9001 1.05958 0)
(1.66683 0.989478 0)
(1.36065 0.945468 0)
(1.33555 0.871273 0)
(1.34915 0.857453 0)
(3 -5.13205e-17 0)
(3 -9.92227e-17 0)
(3 -1.29588e-16 0)
(3 9.07141e-16 0)
(3 -6.4571e-15 0)
(3 4.81793e-14 0)
(3 -5.18989e-14 0)
(3 4.25281e-12 0)
(3 -1.53263e-12 0)
(3 3.08362e-10 0)
(3 -1.5095e-09 0)
(3 1.47637e-08 0)
(3 5.99877e-08 0)
(3 6.43526e-07 0)
(3 8.21917e-06 0)
(3.00003 2.68904e-05 0)
(3.0001 -4.31225e-05 0)
(3.00171 0.000589021 0)
(3.00811 0.0177922 0)
(3.09986 -0.299745 0)
(3.13688 0.771708 0)
(2.2734 1.05282 0)
(1.43661 0.940728 0)
(1.37715 0.913126 0)
(1.39308 0.865729 0)
(3 1.53963e-16 0)
(3 1.82426e-16 0)
(3 2.90088e-16 0)
(3 1.86709e-17 0)
(3 1.61398e-15 0)
(3 1.34054e-14 0)
(3 9.93768e-14 0)
(3 9.945e-13 0)
(3 -1.01962e-13 0)
(3 5.78208e-11 0)
(3 3.63703e-10 0)
(3 2.90046e-09 0)
(3 3.26168e-08 0)
(3 8.5248e-08 0)
(3.00001 1.64545e-06 0)
(2.99997 1.6575e-05 0)
(3.00013 8.18603e-05 0)
(2.99926 0.000972144 0)
(3.01781 0.00777435 0)
(2.90591 0.059059 0)
(3.38666 0.465864 0)
(2.94433 1.08581 0)
(1.76417 1.0154 0)
(1.44987 0.980312 0)
(1.42232 0.903361 0)
(3 -1.21168e-17 0)
(3 1.71514e-16 0)
(3 -1.90648e-16 0)
(3 -3.78896e-16 0)
(3 -3.29367e-16 0)
(3 3.21015e-15 0)
(3 4.17884e-14 0)
(3 5.99431e-13 0)
(3 1.98605e-12 0)
(3 2.14478e-11 0)
(3 3.05126e-10 0)
(3 1.78091e-09 0)
(3 -1.79582e-08 0)
(3 1.49431e-07 0)
(3 6.45496e-07 0)
(3 9.40145e-06 0)
(3.00002 -4.59596e-05 0)
(3.00008 0.000233988 0)
(3.00208 0.00059866 0)
(3.00539 0.0112876 0)
(3.12259 -0.217446 0)
(3.19665 0.762133 0)
(2.40126 1.06184 0)
(1.53209 0.961096 0)
(1.47351 0.935448 0)
(3 -2.05276e-16 0)
(3 -2.88647e-16 0)
(3 -8.72555e-16 0)
(3 -1.06971e-15 0)
(3 -1.44338e-15 0)
(3 1.11745e-15 0)
(3 2.77212e-14 0)
(3 7.68691e-14 0)
(3 1.11634e-12 0)
(3 3.32255e-12 0)
(3 9.09458e-11 0)
(3 4.69099e-10 0)
(3 4.65285e-09 0)
(3 2.326e-08 0)
(3 9.16955e-08 0)
(3 1.93008e-06 0)
(3 1.04281e-05 0)
(3.00008 0.000117058 0)
(2.99806 0.00110574 0)
(3.01599 0.0075044 0)
(2.91891 0.059151 0)
(3.37604 0.426722 0)
(3.02078 1.08401 0)
(1.9025 1.03844 0)
(1.53242 1.00885 0)
(3 5.13189e-17 0)
(3 1.02785e-16 0)
(3 1.02863e-16 0)
(3 1.02707e-16 0)
(3 7.6676e-16 0)
(3 -3.86833e-15 0)
(3 1.02744e-14 0)
(3 6.22202e-14 0)
(3 1.1347e-13 0)
(3 5.11616e-12 0)
(3 1.55252e-11 0)
(3 1.8899e-10 0)
(3 1.11601e-09 0)
(3 1.1396e-08 0)
(3 1.02237e-07 0)
(3 7.98817e-07 0)
(2.99999 5.83425e-06 0)
(3.00007 5.90685e-05 0)
(2.99989 8.91193e-05 0)
(3.00304 0.0023645 0)
(3.00174 0.00559631 0)
(3.13709 -0.0357085 0)
(3.31077 0.679104 0)
(2.58915 1.0449 0)
(1.66594 0.966998 0)
(3 -1.97522e-33 0)
(3 -1.53957e-16 0)
(3 -5.13189e-17 0)
(3 1.76765e-16 0)
(3 1.16772e-15 0)
(3 -1.29864e-15 0)
(3 4.10487e-15 0)
(3 9.03781e-15 0)
(3 -5.2317e-15 0)
(3 1.26512e-12 0)
(3 3.14719e-12 0)
(3 7.64318e-11 0)
(3 2.47466e-10 0)
(3 4.34046e-09 0)
(3 1.50248e-08 0)
(3 2.59564e-07 0)
(3 1.06561e-06 0)
(3 1.56788e-05 0)
(3.00015 8.69901e-05 0)
(2.99941 0.000915958 0)
(3.00913 0.0060086 0)
(2.97077 0.0525724 0)
(3.33176 0.391944 0)
(3.111 1.01812 0)
(2.10912 1.05515 0)
(3 -1.02638e-16 0)
(3 -2.65475e-16 0)
(3 -2.46e-16 0)
(3 -3.09382e-16 0)
(3 -2.97343e-16 0)
(3 -3.09867e-16 0)
(3 8.82231e-16 0)
(3 7.5096e-16 0)
(3 2.77473e-14 0)
(3 2.87777e-13 0)
(3 1.98276e-12 0)
(3 7.79623e-12 0)
(3 1.82546e-10 0)
(3 5.65051e-10 0)
(3 1.10114e-08 0)
(3 3.66088e-08 0)
(3 5.89064e-07 0)
(3 2.77484e-06 0)
(3.00004 3.01953e-05 0)
(2.99996 0.000132899 0)
(3.00227 0.00185834 0)
(3.00177 0.00946379 0)
(3.12799 0.020806 0)
(3.34515 0.601686 0)
(2.77708 1.05124 0)
(3 -2.05276e-16 0)
(3 -9.24446e-33 0)
(3 -3.07913e-16 0)
(3 -4.66374e-16 0)
(3 -5.8989e-16 0)
(3 -8.15869e-16 0)
(3 -7.96959e-16 0)
(3 1.60628e-16 0)
(3 2.53147e-14 0)
(3 7.11886e-14 0)
(3 8.99072e-13 0)
(3 2.55665e-12 0)
(3 5.68142e-11 0)
(3 2.19434e-10 0)
(3 3.07713e-09 0)
(3 1.49773e-08 0)
(3 1.87742e-07 0)
(3 1.08838e-06 0)
(2.99999 1.14841e-05 0)
(3.00013 7.18955e-05 0)
(2.99964 0.000714198 0)
(3.00715 0.00487679 0)
(2.98347 0.0435839 0)
(3.33134 0.317754 0)
(3.22192 0.903107 0)
(3 -6.04381e-17 0)
(3 1.53957e-16 0)
(3 2.56595e-16 0)
(3 2.56595e-16 0)
(3 3.15663e-16 0)
(3 2.73412e-16 0)
(3 3.7131e-16 0)
(3 5.4344e-16 0)
(3 6.40093e-15 0)
(3 4.5119e-14 0)
(3 1.60939e-13 0)
(3 3.8353e-12 0)
(3 -1.20424e-11 0)
(3 1.43505e-10 0)
(3 1.84944e-11 0)
(3 7.70309e-09 0)
(3 8.37689e-09 0)
(3 4.39544e-07 0)
(3 6.38916e-07 0)
(3.00001 1.99775e-05 0)
(3.00008 0.000109309 0)
(3.00096 -0.000335649 0)
(3.00216 0.00806255 0)
(3.09131 0.0615147 0)
(3.37811 0.483299 0)
(3 5.13189e-17 0)
(3 4.704e-17 0)
(3 1.02638e-16 0)
(3 5.13117e-17 0)
(3 7.68736e-17 0)
(3 5.02412e-16 0)
(3 7.25441e-16 0)
(3 1.11933e-15 0)
(3 3.93123e-15 0)
(3 1.62791e-14 0)
(3 1.06698e-13 0)
(3 -8.58059e-14 0)
(3 5.67908e-12 0)
(3 4.04242e-11 0)
(3 3.3577e-10 0)
(3 2.60843e-09 0)
(3 1.98354e-08 0)
(3 1.48408e-07 0)
(3 1.07197e-06 0)
(3.00001 -7.87881e-06 0)
(3.00002 4.46688e-05 0)
(3.00007 0.000568594 0)
(3.00165 -0.00251171 0)
(3.00451 0.0291131 0)
(3.17324 0.0944722 0)
(3 1.53957e-16 0)
(3 1.53957e-16 0)
(3 -5.65119e-17 0)
(3 2.61524e-16 0)
(3 2.36295e-16 0)
(3 4.9268e-16 0)
(3 5.9092e-16 0)
(3 1.45074e-15 0)
(3 -2.64911e-15 0)
(3 8.07366e-15 0)
(3 2.26863e-14 0)
(3 2.87232e-13 0)
(3 -7.14926e-13 0)
(3 1.97446e-11 0)
(3 -3.63198e-11 0)
(3 3.65883e-10 0)
(3 2.88841e-09 0)
(3 3.92688e-08 0)
(3 1.68437e-07 0)
(2.99999 2.01599e-06 0)
(3.00005 1.34462e-05 0)
(2.99997 8.18621e-05 0)
(2.99849 0.000853784 0)
(3.01083 0.00604118 0)
(2.98973 0.0527146 0)
(3 -1.02638e-16 0)
(3 -2.45244e-17 0)
(3 1.36484e-16 0)
(3 2.07989e-16 0)
(3 3.04834e-16 0)
(3 8.50588e-17 0)
(3 4.17887e-16 0)
(3 6.46019e-16 0)
(3 8.16806e-16 0)
(3 1.70018e-15 0)
(3 5.45338e-15 0)
(3 5.53847e-14 0)
(3 2.34993e-13 0)
(3 3.78906e-12 0)
(3 3.19628e-11 0)
(3 -2.16454e-10 0)
(3 4.57061e-09 0)
(3 -5.59604e-09 0)
(3 1.57758e-07 0)
(3 -1.27182e-08 0)
(3 7.70127e-06 0)
(3.00002 6.04481e-05 0)
(3.0001 1.45897e-05 0)
(3.00077 0.00175046 0)
(3.01181 -0.000861614 0)
(3 5.13189e-17 0)
(3 9.64179e-17 0)
(3 -1.74671e-17 0)
(3 1.11993e-16 0)
(3 6.75552e-17 0)
(3 -1.02127e-17 0)
(3 -2.784e-17 0)
(3 4.74485e-17 0)
(3 5.12835e-17 0)
(3 1.25458e-16 0)
(3 4.53569e-15 0)
(3 1.37167e-14 0)
(3 2.09584e-13 0)
(3 2.234e-12 0)
(3 6.78734e-12 0)
(3 6.1209e-11 0)
(3 5.09555e-10 0)
(3 3.66477e-09 0)
(3 1.70618e-08 0)
(3 1.22031e-07 0)
(3 1.19267e-06 0)
(3.00001 9.55075e-06 0)
(3.00004 7.03342e-06 0)
(3.00025 0.00040925 0)
(3.00009 0.00205924 0)
(3 1.13182e-16 0)
(3 3.05907e-16 0)
(3 3.91514e-16 0)
(3 8.07375e-17 0)
(3 9.16373e-17 0)
(3 -4.4403e-16 0)
(3 -8.18869e-16 0)
(3 -1.0925e-15 0)
(3 -1.34664e-15 0)
(3 -1.54833e-15 0)
(3 -1.57691e-15 0)
(3 -1.40271e-15 0)
(3 2.63706e-14 0)
(3 -2.05841e-13 0)
(3 -1.00187e-12 0)
(3 -3.03648e-11 0)
(3 1.7066e-10 0)
(3 -7.07905e-10 0)
(3 2.53028e-09 0)
(3 4.81474e-08 0)
(3 3.54779e-07 0)
(3 2.71519e-06 0)
(3.00001 6.14825e-06 0)
(3.00017 0.000104472 0)
(2.99928 0.000736731 0)
(3 -5.13189e-17 0)
(3 -2.56595e-16 0)
(3 -2.56595e-16 0)
(3 -3.07913e-16 0)
(3 -2.56595e-16 0)
(3 -2.02991e-16 0)
(3 -2.07524e-16 0)
(3 -1.47646e-16 0)
(3 -1.09774e-16 0)
(3 3.20484e-16 0)
(3 1.53147e-15 0)
(3 -4.64233e-15 0)
(3 2.70444e-14 0)
(3 1.54354e-13 0)
(3 3.31191e-13 0)
(3 4.0906e-12 0)
(3 3.26915e-11 0)
(3 2.35004e-10 0)
(3 7.80764e-10 0)
(3 8.62968e-09 0)
(3 1.18941e-07 0)
(3 5.33673e-07 0)
(3 5.07252e-06 0)
(3.00002 4.88155e-05 0)
(3.00008 9.19718e-05 0)
(3 2.06833e-17 0)
(3 -1.25838e-16 0)
(3 1.0264e-16 0)
(3 3.0788e-16 0)
(3 4.21978e-16 0)
(3 3.4219e-16 0)
(3 4.78226e-16 0)
(3 4.12374e-16 0)
(3 3.62847e-16 0)
(3 3.34203e-16 0)
(3 1.3486e-16 0)
(3 2.15534e-16 0)
(3 2.89438e-15 0)
(3 -8.66052e-15 0)
(3 -5.1095e-14 0)
(3 -1.96608e-12 0)
(3 -2.62482e-12 0)
(3 -6.65218e-11 0)
(3 -1.25466e-09 0)
(3 4.04968e-09 0)
(3 -1.63587e-09 0)
(3 1.39204e-07 0)
(3 2.98182e-07 0)
(3.00001 1.73208e-06 0)
(3.00006 3.46559e-05 0)
(3 1.53957e-16 0)
(3 2.90643e-16 0)
(3 1.82139e-16 0)
(3 1.02638e-16 0)
(3 1.53957e-16 0)
(3 9.80421e-17 0)
(3 2.09871e-16 0)
(3 3.07913e-16 0)
(3 3.07913e-16 0)
(3 2.28805e-16 0)
(3 6.29348e-17 0)
(3 8.88051e-17 0)
(3 1.054e-15 0)
(3 9.71071e-15 0)
(3 1.63621e-14 0)
(3 5.54168e-14 0)
(3 1.27268e-12 0)
(3 1.1765e-11 0)
(3 2.06688e-11 0)
(3 3.68716e-10 0)
(3 4.82996e-09 0)
(3 4.07776e-08 0)
(3 2.50154e-07 0)
(3 1.55812e-06 0)
(3.00002 1.27956e-05 0)
(3 -1.02638e-16 0)
(3 -3.59232e-16 0)
(3 -3.77615e-16 0)
(3 -7.69784e-16 0)
(3 -7.69784e-16 0)
(3 -7.11326e-16 0)
(3 -6.22966e-16 0)
(3 -5.97587e-16 0)
(3 -6.34111e-16 0)
(3 -5.13183e-16 0)
(3 -5.64772e-16 0)
(3 -5.63239e-16 0)
(3 -1.21796e-15 0)
(3 7.36803e-16 0)
(3 2.05387e-15 0)
(3 1.09485e-14 0)
(3 1.94928e-13 0)
(3 -1.63662e-12 0)
(3 -5.86028e-12 0)
(3 1.47868e-10 0)
(3 -6.63752e-10 0)
(3 1.48563e-08 0)
(3 -4.27096e-08 0)
(3 4.84213e-07 0)
(3 2.59802e-06 0)
(3 -1.02638e-16 0)
(3 -1.53957e-16 0)
(3 -1.53957e-16 0)
(3 -5.13189e-17 0)
(3 -5.13189e-17 0)
(3 -1.02638e-16 0)
(3 -5.13189e-17 0)
(3 -5.64508e-16 0)
(3 -7.18465e-16 0)
(3 -8.21102e-16 0)
(3 -8.72584e-16 0)
(3 -8.83713e-16 0)
(3 -7.76849e-16 0)
(3 -9.29619e-16 0)
(3 1.64937e-15 0)
(3 1.17257e-14 0)
(3 1.548e-13 0)
(3 -3.2088e-12 0)
(3 8.04953e-12 0)
(3 -6.84704e-11 0)
(3 3.2867e-10 0)
(3 2.47566e-09 0)
(3 1.62175e-08 0)
(3 4.12658e-09 0)
(3 1.96039e-07 0)
(3 5.13189e-17 0)
(3 -5.13189e-17 0)
(3 5.13189e-17 0)
(3 9.19145e-18 0)
(3 9.34464e-17 0)
(3 -1.02638e-16 0)
(3 -1.02638e-16 0)
(3 -1.02638e-16 0)
(3 -1.02638e-16 0)
(3 -3.07913e-16 0)
(3 -3.50331e-16 0)
(3 -2.45125e-16 0)
(3 -3.74332e-16 0)
(3 -2.4151e-16 0)
(3 -5.61596e-17 0)
(3 5.79333e-15 0)
(3 5.60803e-16 0)
(3 1.56813e-13 0)
(3 1.63333e-12 0)
(3 1.57528e-11 0)
(3 -9.11345e-11 0)
(3 9.71686e-10 0)
(3 -1.16148e-09 0)
(3 2.06857e-08 0)
(3 -1.91408e-07 0)
(3 5.13189e-17 0)
(3 1.55253e-16 0)
(3 5.00227e-17 0)
(3 6.51061e-17 0)
(3 3.75317e-17 0)
(3 -2.56595e-16 0)
(3 -5.13189e-16 0)
(3 -6.67146e-16 0)
(3 -8.72421e-16 0)
(3 -8.72421e-16 0)
(3 -8.72421e-16 0)
(3 -9.2374e-16 0)
(3 -9.2374e-16 0)
(3 -1.02084e-15 0)
(3 -9.72775e-16 0)
(3 -4.13897e-16 0)
(3 -2.35636e-15 0)
(3 -1.40825e-14 0)
(3 1.11024e-12 0)
(3 -4.79941e-12 0)
(3 1.70249e-11 0)
(3 -3.14867e-12 0)
(3 -3.49502e-10 0)
(3 6.11903e-09 0)
(3 2.02915e-08 0)
(3 5.13189e-17 0)
(3 2.05276e-16 0)
(3 3.07913e-16 0)
(3 3.07913e-16 0)
(3 4.10551e-16 0)
(3 4.6187e-16 0)
(3 4.6187e-16 0)
(3 4.56793e-16 0)
(3 5.76177e-16 0)
(3 2.44723e-16 0)
(3 2.99583e-16 0)
(3 -3.2029e-16 0)
(3 -6.28598e-16 0)
(3 -8.25263e-16 0)
(3 -9.44361e-16 0)
(3 -1.24757e-15 0)
(3 -8.00862e-15 0)
(3 -5.8022e-14 0)
(3 2.40189e-13 0)
(3 -2.31936e-12 0)
(3 -7.75299e-12 0)
(3 -1.48166e-10 0)
(3 -1.13199e-09 0)
(3 3.58273e-09 0)
(3 -1.05847e-08 0)
(3 -5.13189e-17 0)
(3 -1.02638e-16 0)
(3 -3.07913e-16 0)
(3 -3.74676e-16 0)
(3 -4.49955e-16 0)
(3 -5.28839e-16 0)
(3 -2.92263e-16 0)
(3 -1.09732e-16 0)
(3 -5.13189e-17 0)
(3 -1.53957e-16 0)
(3 -2.05276e-16 0)
(3 -3.59232e-16 0)
(3 -3.59232e-16 0)
(3 -5.13189e-16 0)
(3 -5.15913e-16 0)
(3 -7.11291e-16 0)
(3 4.34004e-16 0)
(3 6.76522e-15 0)
(3 5.8144e-14 0)
(3 -2.39126e-13 0)
(3 2.53238e-12 0)
(3 -8.16484e-12 0)
(3 6.1963e-11 0)
(3 1.18893e-09 0)
(3 1.70437e-09 0)
(3 -1.02638e-16 0)
(3 -2.56595e-16 0)
(3 -5.64508e-16 0)
(3 -7.18465e-16 0)
(3 -8.72421e-16 0)
(3 -9.75059e-16 0)
(3 -9.11147e-16 0)
(3 -1.15294e-15 0)
(3 -1.10509e-15 0)
(3 -9.2374e-16 0)
(3 -6.15827e-16 0)
(3 -2.56595e-16 0)
(3 -1.80928e-17 0)
(3 1.14725e-16 0)
(3 4.60574e-16 0)
(3 6.54045e-16 0)
(3 6.01707e-16 0)
(3 -4.61734e-16 0)
(3 1.9245e-14 0)
(3 -1.22567e-13 0)
(3 -4.11217e-14 0)
(3 -2.41094e-12 0)
(3 -1.5109e-11 0)
(3 2.3023e-10 0)
(3 -1.00895e-09 0)
(1.24454 1.10846 0)
(0.584844 0.660394 0)
(-0.587071 0.0369314 0)
(-0.424365 -0.167274 0)
(-0.585694 -0.170003 0)
(-0.451804 -0.0915381 0)
(-0.667689 0.087392 0)
(-0.988979 0.143935 0)
(-1.1747 0.142664 0)
(-1.25764 0.0979169 0)
(-1.27859 0.0612294 0)
(-1.27171 0.0289499 0)
(-1.26899 0.0282413 0)
(-1.29178 0.0182068 0)
(-1.37522 -0.00366422 0)
(-1.44216 -0.0230625 0)
(-1.48448 -0.0228925 0)
(-1.50336 -0.0190522 0)
(-1.50689 -0.0164992 0)
(-1.49872 -0.0132191 0)
(-1.49525 -0.0110717 0)
(-1.49314 -0.0106271 0)
(-1.4964 -0.00720801 0)
(-1.49935 -0.00611971 0)
(-1.50754 -0.00228943 0)
(-1.51282 0.00100282 0)
(-1.51626 0.00569212 0)
(-1.51913 0.00533611 0)
(-1.51968 0.00502613 0)
(-1.51563 0.00137782 0)
(-1.50515 0.00288424 0)
(-1.47727 0.00225229 0)
(-1.45192 0.00618379 0)
(-1.39224 0.00840591 0)
(-1.32174 0.00312565 0)
(-1.25082 -0.00370731 0)
(-1.17869 -0.0176046 0)
(-1.10231 -0.0321488 0)
(-1.00498 -0.0445256 0)
(-0.916619 -0.0540251 0)
(-0.83088 -0.0461189 0)
(-0.736325 -0.0363981 0)
(-0.640057 -0.0244847 0)
(-0.542422 -0.00744092 0)
(-0.444192 0.00217677 0)
(-0.363925 0.0172204 0)
(-0.304442 0.0101704 0)
(-0.207578 -0.0145815 0)
(-0.119956 -0.0173684 0)
(-0.0442922 -0.0316582 0)
(0.0599278 -0.0325721 0)
(0.130774 -0.024959 0)
(0.208305 -0.0274922 0)
(0.277948 -0.0278688 0)
(0.343797 -0.0282448 0)
(0.407256 -0.0283554 0)
(0.466012 -0.0271886 0)
(0.519897 -0.0253969 0)
(0.570425 -0.0237457 0)
(0.618241 -0.0219604 0)
(0.663199 -0.0202072 0)
(0.7053 -0.0188786 0)
(0.745033 -0.0179715 0)
(0.782691 -0.0168959 0)
(0.818727 -0.015876 0)
(0.853049 -0.0145586 0)
(0.885568 -0.0130837 0)
(0.91619 -0.0118574 0)
(0.945239 -0.0110047 0)
(0.972898 -0.010307 0)
(0.99969 -0.00967349 0)
(1.02563 -0.00910509 0)
(1.05095 -0.00860966 0)
(1.07568 -0.00813286 0)
(1.09973 -0.00761861 0)
(1.12328 -0.0069248 0)
(1.14567 -0.00631201 0)
(1.16765 -0.00573874 0)
(1.18814 -0.00532709 0)
(1.2083 -0.00491121 0)
(1.22714 -0.00460197 0)
(1.24569 -0.004222 0)
(1.26299 -0.0038851 0)
(1.28007 -0.00345992 0)
(1.29595 -0.0031098 0)
(1.31165 -0.00269074 0)
(1.32633 -0.00241892 0)
(1.34086 -0.00210303 0)
(1.35447 -0.00200139 0)
(1.36796 -0.001838 0)
(1.3807 -0.00184303 0)
(1.39339 -0.00169884 0)
(1.40522 -0.00171864 0)
(1.41696 -0.00157429 0)
(1.428 -0.00166583 0)
(1.43896 -0.00146707 0)
(1.45019 -0.00166085 0)
(1.46138 -0.0012277 0)
(1.47331 -0.00127291 0)
(1.48697 0.000218949 0)
(1.27204 1.00666 0)
(1.22528 0.779093 0)
(0.753745 0.593784 0)
(0.668122 0.293717 0)
(0.148788 0.175349 0)
(-0.14952 0.128973 0)
(-0.350214 0.228239 0)
(-0.771365 0.147624 0)
(-0.897143 0.0400829 0)
(-0.944194 -0.0078562 0)
(-0.880001 -0.0462398 0)
(-0.847914 -0.0380086 0)
(-0.839774 -0.0292024 0)
(-0.89971 -0.0158045 0)
(-0.985187 -0.0104678 0)
(-1.05754 0.0368363 0)
(-1.10162 0.0589624 0)
(-1.11608 0.0516371 0)
(-1.11225 0.0234997 0)
(-1.10301 0.0149 0)
(-1.09799 0.0077984 0)
(-1.09559 0.00606682 0)
(-1.09823 0.00733022 0)
(-1.10033 0.00449653 0)
(-1.11141 0.00437892 0)
(-1.11958 -0.00159491 0)
(-1.13031 -0.000223313 0)
(-1.13665 -0.00569759 0)
(-1.13983 -0.00275334 0)
(-1.13315 -0.00327288 0)
(-1.11929 -0.00207686 0)
(-1.08375 -0.00685505 0)
(-1.04968 -0.00922797 0)
(-0.997432 -0.0162469 0)
(-0.913768 -0.0298281 0)
(-0.834113 -0.0396348 0)
(-0.755528 -0.0376838 0)
(-0.667756 -0.0225331 0)
(-0.55055 -0.0505954 0)
(-0.460134 -0.0371713 0)
(-0.371871 -0.041694 0)
(-0.236356 -0.0744582 0)
(-0.122357 -0.0993673 0)
(0.0213585 -0.122471 0)
(0.166944 -0.137028 0)
(0.300361 -0.128122 0)
(0.43479 -0.135266 0)
(0.549405 -0.14032 0)
(0.626867 -0.122487 0)
(0.699834 -0.119105 0)
(0.762317 -0.114539 0)
(0.813919 -0.100837 0)
(0.865815 -0.0957374 0)
(0.910674 -0.0866822 0)
(0.949075 -0.079003 0)
(0.986598 -0.0729427 0)
(1.01923 -0.0649784 0)
(1.04968 -0.0583353 0)
(1.07942 -0.0540125 0)
(1.1075 -0.0503164 0)
(1.13411 -0.0463428 0)
(1.15955 -0.0422772 0)
(1.18452 -0.0385596 0)
(1.2083 -0.0353767 0)
(1.23177 -0.0328696 0)
(1.25395 -0.0304793 0)
(1.27561 -0.0282778 0)
(1.29616 -0.0260787 0)
(1.31584 -0.0240812 0)
(1.33466 -0.0222275 0)
(1.35304 -0.0207893 0)
(1.37105 -0.0194371 0)
(1.38874 -0.0181868 0)
(1.40622 -0.0167621 0)
(1.42345 -0.0154831 0)
(1.44055 -0.0142619 0)
(1.45696 -0.0131211 0)
(1.47308 -0.0118447 0)
(1.48829 -0.0106524 0)
(1.50338 -0.00944105 0)
(1.5177 -0.00841569 0)
(1.53193 -0.00740444 0)
(1.54532 -0.00662858 0)
(1.55862 -0.00585102 0)
(1.57099 -0.00527055 0)
(1.58327 -0.00459936 0)
(1.59476 -0.00407017 0)