/*--------------------------------*- C++ -*----------------------------------*\
| =========                 |                                                 |
| \\      /  F ield         | OpenFOAM: The Open Source CFD Toolbox           |
|  \\    /   O peration     | Version:  v2106                                 |
|   \\  /    A nd           | Website:  www.openfoam.com                      |
|    \\/     M anipulation  |                                                 |
\*---------------------------------------------------------------------------*/
FoamFile
{
    version     2.0;
    format      ascii;
    arch        "LSB;label=32;scalar=64";
    class       volScalarField;
    location    "3";
    object      Mo;
}
// * * * * * * * * * * * * * * * * * * * * * * * * * * * * * * * * * * * * * //

dimensions      [0 0 0 0 0 0 0];

internalField   nonuniform List<scalar> 
5250
(
3.01265
3.01265
3.01265
3.01265
3.01265
3.01265
3.01265
3.01264
3.01264
3.01231
3.01075
2.98809
2.87792
2.43644
1.44268
0.378142
0.363098
0.344138
0.30596
0.261682
0.22463
0.177927
0.131559
0.0818532
0.0373705
3.01265
3.01265
3.01265
3.01265
3.01265
3.01265
3.01265
3.01264
3.01264
3.01231
3.0108
2.98869
2.88047
2.44503
1.45289
0.38825
0.360421
0.347793
0.309972
0.264067
0.226761
0.182008
0.141261
0.0990281
0.0709403
3.01265
3.01265
3.01265
3.01265
3.01265
3.01265
3.01265
3.01264
3.01264
3.01233
3.0109
2.99
2.88585
2.46326
1.4737
0.418872
0.351231
0.349129
0.315304
0.271341
0.238656
0.199466
0.163656
0.131049
0.113443
3.01265
3.01265
3.01265
3.01265
3.01265
3.01265
3.01265
3.01264
3.01264
3.01233
3.01116
2.99072
2.89625
2.49345
1.50967
0.472521
0.342041
0.355525
0.324125
0.286173
0.257383
0.223123
0.193498
0.169287
0.157413
3.01265
3.01265
3.01265
3.01265
3.01265
3.01265
3.01265
3.01265
3.01263
3.01242
3.01075
2.995
2.89681
2.53191
1.55533
0.538984
0.32825
0.368716
0.337046
0.301403
0.277961
0.250802
0.228643
0.211455
0.20521
3.01265
3.01265
3.01265
3.01265
3.01265
3.01265
3.01265
3.01265
3.01263
3.01248
3.01108
2.99934
2.911
2.58779
1.65121
0.625359
0.312704
0.379229
0.34796
0.317438
0.301467
0.284577
0.2686
0.260253
0.25752
3.01265
3.01265
3.01265
3.01265
3.01265
3.01265
3.01265
3.01265
3.01263
3.01251
3.01135
3.00194
2.92855
2.65535
1.82782
0.752079
0.295765
0.390709
0.356777
0.334371
0.326214
0.31943
0.312294
0.31047
0.318291
3.01265
3.01265
3.01265
3.01265
3.01265
3.01265
3.01265
3.01265
3.01264
3.01256
3.0116
3.00508
2.94625
2.72172
2.01405
0.94734
0.313849
0.413623
0.376983
0.353038
0.353796
0.354982
0.362605
0.371104
0.392147
3.01265
3.01265
3.01265
3.01265
3.01265
3.01265
3.01265
3.01265
3.01264
3.01258
3.01204
3.00743
2.9616
2.77945
2.13438
1.19982
0.38477
0.456266
0.414915
0.380693
0.388841
0.394971
0.418024
0.433976
0.48915
3.01265
3.01265
3.01265
3.01265
3.01265
3.01265
3.01265
3.01265
3.01264
3.0126
3.01224
3.00886
2.9722
2.81999
2.24145
1.31929
0.501114
0.516018
0.474518
0.426969
0.432941
0.441907
0.478604
0.523409
0.657163
3.01265
3.01265
3.01265
3.01265
3.01265
3.01265
3.01265
3.01265
3.01264
3.01263
3.01222
3.01028
2.98221
2.86027
2.35695
1.42509
0.607821
0.580999
0.541113
0.496212
0.48833
0.502177
0.548088
0.64505
0.875853
3.01265
3.01265
3.01265
3.01265
3.01265
3.01265
3.01265
3.01265
3.01265
3.01263
3.01235
3.01103
2.99093
2.89504
2.48095
1.55141
0.718996
0.582257
0.597968
0.581476
0.556428
0.574563
0.618936
0.747632
0.921173
3.01265
3.01265
3.01265
3.01265
3.01265
3.01265
3.01265
3.01265
3.01265
3.01263
3.01248
3.0109
2.99945
2.91788
2.60995
1.70797
0.881631
0.567032
0.614813
0.639374
0.629028
0.644474
0.679919
0.793298
0.924392
3.01265
3.01265
3.01265
3.01265
3.01265
3.01265
3.01265
3.01265
3.01265
3.01264
3.01256
3.01181
3.00622
2.95167
2.74627
2.07187
1.14523
0.5803
0.629207
0.660649
0.676154
0.703453
0.737508
0.821253
0.937206
3.01265
3.01265
3.01265
3.01265
3.01265
3.01265
3.01265
3.01265
3.01265
3.01265
3.01257
3.01247
3.0083
2.97171
2.81645
2.26413
1.4072
0.671188
0.669603
0.682995
0.705677
0.739981
0.782582
0.851773
0.949407
3.01265
3.01265
3.01265
3.01265
3.01265
3.01265
3.01265
3.01265
3.01265
3.01264
3.01263
3.01225
3.01069
2.98524
2.87759
2.42228
1.57279
0.829262
0.717813
0.72387
0.742579
0.775553
0.818947
0.879197
0.960326
3.01265
3.01265
3.01265
3.01265
3.01265
3.01265
3.01265
3.01265
3.01265
3.01265
3.01263
3.01246
3.01105
2.99797
2.91278
2.58577
1.73805
1.04142
0.738418
0.762355
0.785551
0.815429
0.854371
0.906185
0.972333
3.01265
3.01265
3.01265
3.01265
3.01265
3.01265
3.01265
3.01265
3.01265
3.01265
3.01264
3.01261
3.01177
3.00777
2.95516
2.76553
2.12625
1.3496
0.759383
0.788634
0.81107
0.839848
0.876451
0.925417
0.985725
3.01265
3.01265
3.01265
3.01265
3.01265
3.01265
3.01265
3.01265
3.01265
3.01265
3.01264
3.01262
3.01212
3.00969
2.97736
2.84272
2.36989
1.60711
0.915975
0.824587
0.839302
0.861971
0.897046
0.943475
0.999828
3.01265
3.01265
3.01265
3.01265
3.01265
3.01265
3.01265
3.01265
3.01265
3.01265
3.01265
3.01262
3.01242
3.01075
2.9958
2.89919
2.57007
1.78247
1.15042
0.871099
0.882017
0.898244
0.925851
0.964516
1.01332
3.01265
3.01265
3.01265
3.01265
3.01265
3.01265
3.01265
3.01265
3.01265
3.01265
3.01265
3.01263
3.0126
3.01162
3.00713
2.94755
2.75661
2.06758
1.46941
0.913598
0.916683
0.929252
0.951058
0.984136
1.02667
3.01265
3.01265
3.01265
3.01265
3.01265
3.01265
3.01265
3.01265
3.01265
3.01265
3.01265
3.01264
3.0126
3.0122
3.00907
2.98228
2.83805
2.43811
1.73549
1.10141
0.958334
0.961509
0.97802
1.00547
1.04205
3.01265
3.01265
3.01265
3.01265
3.01265
3.01265
3.01265
3.01265
3.01265
3.01265
3.01265
3.01265
3.01262
3.01259
3.01074
3.00424
2.90596
2.67683
1.92736
1.39262
1.00993
0.99879
1.01114
1.03164
1.06145
3.01265
3.01265
3.01265
3.01265
3.01265
3.01265
3.01265
3.01265
3.01265
3.01265
3.01265
3.01265
3.01264
3.01257
3.01198
3.00755
2.97023
2.79971
2.32291
1.68513
1.13014
1.04438
1.04139
1.05799
1.08295
3.01265
3.01265
3.01265
3.01265
3.01265
3.01265
3.01265
3.01265
3.01265
3.01265
3.01265
3.01265
3.01265
3.0126
3.01261
3.00977
3.00241
2.86814
2.63743
1.92648
1.37804
1.1101
1.0823
1.09209
1.10907
3.01265
3.01265
3.01265
3.01265
3.01265
3.01265
3.01265
3.01265
3.01265
3.01265
3.01265
3.01265
3.01265
3.01264
3.01255
3.01177
3.00624
2.95871
2.7701
2.23257
1.68968
1.18746
1.12656
1.11786
1.13341
3.01265
3.01265
3.01265
3.01265
3.01265
3.01265
3.01265
3.01265
3.01265
3.01265
3.01265
3.01265
3.01265
3.01265
3.01259
3.01267
3.00917
3.00253
2.85372
2.62732
1.97335
1.4366
1.18934
1.15733
1.16658
3.01265
3.01265
3.01265
3.01265
3.01265
3.01265
3.01265
3.01265
3.01265
3.01265
3.01265
3.01265
3.01265
3.01265
3.01263
3.01254
3.01167
3.00593
2.9544
2.77034
2.24675
1.75631
1.26532
1.20149
1.19218
3.01265
3.01265
3.01265
3.01265
3.01265
3.01265
3.01265
3.01265
3.01265
3.01265
3.01265
3.01265
3.01265
3.01265
3.01264
3.01256
3.0125
3.00889
3.00298
2.85926
2.64091
2.02601
1.52208
1.26787
1.23105
3.01265
3.01265
3.01265
3.01265
3.01265
3.01265
3.01265
3.01265
3.01265
3.01265
3.01265
3.01265
3.01265
3.01265
3.01265
3.01263
3.01255
3.0117
3.00655
2.95622
2.78954
2.32004
1.83471
1.36517
1.27445
3.01265
3.01265
3.01265
3.01265
3.01265
3.01265
3.01265
3.01265
3.01265
3.01265
3.01265
3.01265
3.01265
3.01265
3.01265
3.01265
3.01266
3.01311
3.01056
3.00569
2.87583
2.70566
2.08476
1.64387
1.33071
3.01265
3.01265
3.01265
3.01265
3.01265
3.01265
3.01265
3.01265
3.01265
3.01265
3.01265
3.01265
3.01265
3.01265
3.01265
3.01265
3.01264
3.01256
3.01182
3.00703
2.96436
2.78947
2.45092
1.97829
1.49165
3.01265
3.01265
3.01265
3.01265
3.01265
3.01265
3.01265
3.01265
3.01265
3.01265
3.01265
3.01265
3.01265
3.01265
3.01265
3.01265
3.01264
3.01264
3.01255
3.01105
3.00087
2.92649
2.74469
2.2
1.83228
3.01265
3.01265
3.01265
3.01265
3.01265
3.01265
3.01265
3.01265
3.01265
3.01265
3.01265
3.01265
3.01265
3.01265
3.01265
3.01265
3.01265
3.01263
3.01261
3.01167
3.00586
3.00415
2.81951
2.66428
2.11141
3.01265
3.01265
3.01265
3.01265
3.01265
3.01265
3.01265
3.01265
3.01265
3.01265
3.01265
3.01265
3.01265
3.01265
3.01265
3.01265
3.01265
3.01265
3.01263
3.01257
3.01131
3.00749
2.94717
2.792
2.33531
3.01265
3.01265
3.01265
3.01265
3.01265
3.01265
3.01265
3.01265
3.01265
3.01265
3.01265
3.01265
3.01265
3.01265
3.01265
3.01265
3.01265
3.01265
3.01265
3.01259
3.01246
3.01046
3.00611
2.87774
2.74578
3.01265
3.01265
3.01265
3.01265
3.01265
3.01265
3.01265
3.01265
3.01265
3.01265
3.01265
3.01265
3.01265
3.01265
3.01265
3.01265
3.01265
3.01265
3.01265
3.01264
3.01255
3.01186
3.00891
2.96977
2.84661
3.01265
3.01265
3.01265
3.01265
3.01265
3.01265
3.01265
3.01265
3.01265
3.01265
3.01265
3.01265
3.01265
3.01265
3.01265
3.01265
3.01265
3.01265
3.01265
3.01265
3.01263
3.01252
3.01139
3.0065
2.94023
3.01265
3.01265
3.01265
3.01265
3.01265
3.01265
3.01265
3.01265
3.01265
3.01265
3.01265
3.01265
3.01265
3.01265
3.01265
3.01265
3.01265
3.01265
3.01265
3.01265
3.01268
3.01264
3.01264
3.00943
3.00712
3.01265
3.01265
3.01265
3.01265
3.01265
3.01265
3.01265
3.01265
3.01265
3.01265
3.01265
3.01265
3.01265
3.01265
3.01265
3.01265
3.01265
3.01265
3.01265
3.01265
3.01265
3.01264
3.01256
3.01206
3.00834
3.01265
3.01265
3.01265
3.01265
3.01265
3.01265
3.01265
3.01265
3.01265
3.01265
3.01265
3.01265
3.01265
3.01265
3.01265
3.01265
3.01265
3.01265
3.01265
3.01265
3.01265
3.01265
3.01264
3.01249
3.01212
3.01265
3.01265
3.01265
3.01265
3.01265
3.01265
3.01265
3.01265
3.01265
3.01265
3.01265
3.01265
3.01265
3.01265
3.01265
3.01265
3.01265
3.01265
3.01265
3.01265
3.01265
3.01265
3.01264
3.01262
3.01239
3.01265
3.01265
3.01265
3.01265
3.01265
3.01265
3.01265
3.01265
3.01265
3.01265
3.01265
3.01265
3.01265
3.01265
3.01265
3.01265
3.01265
3.01265
3.01265
3.01265
3.01265
3.01265
3.01265
3.01264
3.01252
3.01265
3.01265
3.01265
3.01265
3.01265
3.01265
3.01265
3.01265
3.01265
3.01265
3.01265
3.01265
3.01265
3.01265
3.01265
3.01265
3.01265
3.01265
3.01265
3.01265
3.01265
3.01265
3.01265
3.01265
3.01261
3.01265
3.01265
3.01265
3.01265
3.01265
3.01265
3.01265
3.01265
3.01265
3.01265
3.01265
3.01265
3.01265
3.01265
3.01265
3.01265
3.01265
3.01265
3.01265
3.01265
3.01265
3.01265
3.01265
3.01265
3.01263
3.01265
3.01265
3.01265
3.01265
3.01265
3.01265
3.01265
3.01265
3.01265
3.01265
3.01265
3.01265
3.01265
3.01265
3.01265
3.01265
3.01265
3.01265
3.01265
3.01265
3.01265
3.01265
3.01265
3.01265
3.01264
3.01265
3.01265
3.01265
3.01265
3.01265
3.01265
3.01265
3.01265
3.01265
3.01265
3.01265
3.01265
3.01265
3.01265
3.01265
3.01265
3.01265
3.01265
3.01265
3.01265
3.01265
3.01265
3.01265
3.01265
3.01264
3.01265
3.01265
3.01265
3.01265
3.01265
3.01265
3.01265
3.01265
3.01265
3.01265
3.01265
3.01265
3.01265
3.01265
3.01265
3.01265
3.01265
3.01265
3.01265
3.01265
3.01265
3.01265
3.01265
3.01265
3.01264
3.01265
3.01265
3.01265
3.01265
3.01265
3.01265
3.01265
3.01265
3.01265
3.01265
3.01265
3.01265
3.01265
3.01265
3.01265
3.01265
3.01265
3.01265
3.01265
3.01265
3.01265
3.01265
3.01265
3.01265
3.01264
3.01265
3.01265
3.01265
3.01265
3.01265
3.01265
3.01265
3.01265
3.01265
3.01265
3.01265
3.01265
3.01265
3.01265
3.01265
3.01265
3.01265
3.01265
3.01265
3.01265
3.01265
3.01265
3.01265
3.01265
3.01264
1.09641
0.434307
0.416747
0.300337
0.352473
0.293135
0.328372
0.32803
0.34931
0.382752
0.484147
0.65815
0.804267
0.898704
0.94708
0.967535
0.975767
0.978823
1.00806
1.0374
1.06653
1.08319
1.09147
1.09524
1.09881
1.10344
1.10803
1.11085
1.11238
1.09276
1.06946
1.03467
0.996485
0.948567
0.895926
0.841824
0.788983
0.736257
0.678458
0.619126
0.558624
0.501091
0.446517
0.389244
0.328989
0.272113
0.220205
0.170105
0.119272
0.0588899
0.0219804
0.0694959
0.123869
0.172949
0.217878
0.259476
0.297024
0.331114
0.363142
0.392458
0.418886
0.442882
0.464807
0.484906
0.503042
0.519546
0.534315
0.547483
0.559094
0.569616
0.578906
0.587765
0.595698
0.603198
0.610106
0.615655
0.620878
0.624361
0.627065
0.627457
0.626427
0.623804
0.620253
0.616202
0.613615
0.612391
0.613186
0.614322
0.615582
0.616869
0.618262
0.619759
0.62147
0.623369
0.625126
0.627158
0.628156
0.629324
0.630593
0.633036
1.07016
0.877452
0.570399
0.364538
0.0671829
0.107681
0.225638
0.206158
0.216969
0.249754
0.379903
0.542668
0.658244
0.734266
0.771193
0.784649
0.786597
0.783412
0.787715
0.822296
0.858071
0.881524
0.8914
0.893656
0.894646
0.895897
0.896902
0.895314
0.893783
0.865533
0.835233
0.792912
0.75022
0.697454
0.641834
0.585294
0.534975
0.486267
0.432054
0.376634
0.31913
0.266792
0.22416
0.162009
0.109267
0.0670975
0.0655426
0.10563
0.172252
0.230071
0.278657
0.32352
0.367109
0.407041
0.443379
0.477843
0.507167
0.53333
0.557164
0.578837
0.597981
0.614699
0.629273
0.642255
0.65379
0.663686
0.67253
0.680523
0.687999
0.695046
0.700548
0.705152
0.709242
0.712983
0.716049
0.71787
0.718868
0.718773
0.717435
0.714535
0.710281
0.704764
0.698476
0.691821
0.68732
0.684304
0.684915
0.68613
0.688545
0.691578
0.695537
0.70011
0.705283
0.710365
0.715687
0.720115
0.723915
0.727038
0.729496
0.73268
1.05079
0.999358
0.896352
0.741464
0.506344
0.341384
0.201566
0.0738102
0.0886204
0.18203
0.339066
0.434349
0.501177
0.539278
0.539131
0.526449
0.513263
0.504774
0.504015
0.531888
0.559601
0.578045
0.583478
0.582907
0.584619
0.584657
0.58584
0.582699
0.579072
0.556156
0.530815
0.493068
0.454866
0.40058
0.344872
0.285685
0.245203
0.181082
0.11482
0.0799143
0.118983
0.183836
0.283133
0.359016
0.405677
0.446843
0.478086
0.509524
0.534602
0.551745
0.566781
0.584155
0.605722
0.628063
0.649849
0.670226
0.689034
0.705934
0.720932
0.734715
0.746976
0.75734
0.76576
0.773058
0.77943
0.783893
0.787904
0.791201
0.794013
0.796696
0.799153
0.801613
0.803965
0.805611
0.806529
0.806376
0.805212
0.803049
0.799289
0.793956
0.78733
0.779433
0.770692
0.761958
0.75365
0.749364
0.746987
0.745922
0.745927
0.746635
0.748428
0.750936
0.754112
0.757953
0.762168
0.766586
0.770464
0.774271
0.777874
0.782757
1.04033
1.12324
1.09007
1.02041
0.878269
0.693167
0.49729
0.371017
0.2354
0.250676
0.310831
0.34167
0.295276
0.237655
0.19998
0.135146
0.0948116
0.0588179
0.034728
0.0565752
0.156459
0.241882
0.269651
0.275607
0.281619
0.282792
0.291497
0.291638
0.289733
0.272523
0.243318
0.208581
0.17701
0.115578
0.0895916
0.146807
0.254011
0.378287
0.49238
0.587438
0.653522
0.685894
0.722228
0.742445
0.746441
0.749514
0.751336
0.75362
0.756041
0.758485
0.761652
0.769969
0.781179
0.79223
0.802908
0.813939
0.824494
0.832792
0.841529
0.850026
0.858299
0.865575
0.871086
0.875335
0.879387
0.882282
0.883305
0.884297
0.885297
0.885839
0.886118
0.886158
0.885895
0.885137
0.883831
0.881842
0.879006
0.875236
0.870015
0.863367
0.854903
0.84497
0.834063
0.823041
0.812203
0.8049
0.801045
0.797146
0.79577
0.794995
0.795396
0.795672
0.797101
0.799142
0.801823
0.804703
0.807849
0.810332
0.812554
0.815974
1.04819
1.13991
1.19918
1.1809
1.10836
1.00877
0.865484
0.709102
0.55002
0.454698
0.463449
0.49792
0.513376
0.500319
0.46859
0.41872
0.357006
0.312758
0.289877
0.2723
0.245984
0.223226
0.163374
0.108421
0.052612
0.0175719
0.0178094
0.0447017
0.040413
0.0548371
0.0770728
0.13304
0.256133
0.379348
0.514024
0.637195
0.748218
0.822726
0.891478
0.933778
0.956029
0.960254
0.965942
0.969004
0.967968
0.961246
0.951694
0.940992
0.933295
0.926195
0.918245
0.915748
0.914388
0.912603
0.913628
0.915042
0.917492
0.920848
0.924513
0.928759
0.932837
0.936442
0.939082
0.94132
0.943195
0.944745
0.945534
0.945859
0.94571
0.945424
0.945327
0.945089
0.944264
0.942718
0.940314
0.937295
0.933439
0.928586
0.922695
0.915435
0.906195
0.895437
0.883417
0.87083
0.858665
0.84924
0.843493
0.838726
0.835279
0.833095
0.83187
0.83125
0.831131
0.832218
0.833801
0.83604
0.838326
0.840738
0.842752
0.844679
1.05351
1.13368
1.20566
1.25346
1.21991
1.1724
1.11119
1.02025
0.905482
0.776678
0.716743
0.731971
0.757654
0.748745
0.718785
0.673245
0.617432
0.566341
0.516185
0.496782
0.49476
0.489588
0.461895
0.421083
0.355618
0.314371
0.261912
0.231188
0.24349
0.290531
0.371796
0.489274
0.632719
0.77442
0.896923
0.993949
1.06703
1.1127
1.15533
1.17751
1.17953
1.17363
1.16549
1.1576
1.14699
1.13005
1.10984
1.08753
1.06456
1.04346
1.02494
1.01004
0.999501
0.98895
0.983808
0.979923
0.975526
0.976758
0.977052
0.977402
0.978883
0.980331
0.981371
0.982683
0.983495
0.984192
0.984969
0.98573
0.985703
0.985122
0.984036
0.983327
0.983115
0.982257
0.980121
0.976802
0.972775
0.967879
0.961822
0.954243
0.944916
0.933823
0.921232
0.907679
0.894404
0.884529
0.875967
0.87004
0.864947
0.861774
0.858931
0.858339
0.857476
0.857542
0.858554
0.860176
0.862358
0.864588
0.866645
0.868444
1.05662
1.1332
1.19459
1.25664
1.27732
1.26326
1.23245
1.18757
1.13577
1.08202
1.012
0.994305
0.998658
0.985551
0.961957
0.926205
0.88224
0.835116
0.788845
0.753271
0.750595
0.742933
0.719016
0.682052
0.631073
0.586321
0.530976
0.493914
0.501288
0.554209
0.657122
0.793791
0.938973
1.068
1.17082
1.25515
1.30853
1.35144
1.37773
1.38968
1.38545
1.37194
1.35
1.31993
1.28423
1.24609
1.21268
1.17782
1.14425
1.11158
1.08529
1.06447
1.05068
1.03739
1.02666
1.02145
1.01548
1.01178
1.0092
1.00759
1.00643
1.00792
1.00869
1.00919
1.00974
1.01003
1.00985
1.01012
1.01064
1.01089
1.01053
1.00992
1.00928
1.00871
1.00736
1.00465
1.00101
0.996513
0.990829
0.983508
0.974304
0.963159
0.950349
0.936278
0.922731
0.91193
0.902863
0.894614
0.888896
0.883521
0.880561
0.878414
0.877352
0.876695
0.877424
0.878693
0.880771
0.883156
0.884905
0.886833
1.05972
1.13245
1.19558
1.24493
1.28561
1.29492
1.29736
1.2855
1.25908
1.23628
1.21912
1.22883
1.2352
1.23364
1.21362
1.18269
1.14281
1.09763
1.0533
1.00966
0.991178
0.983835
0.968354
0.94227
0.903034
0.857442
0.799891
0.742995
0.741903
0.797458
0.904876
1.03686
1.16506
1.2753
1.36216
1.42972
1.47557
1.51542
1.53927
1.55228
1.55021
1.53715
1.51166
1.47253
1.41467
1.34525
1.27004
1.22151
1.18523
1.15172
1.12248
1.0973
1.08198
1.06758
1.05687
1.04754
1.04206
1.03588
1.03308
1.03037
1.02813
1.02664
1.02812
1.02841
1.02811
1.02816
1.02863
1.02918
1.02978
1.02999
1.03017
1.03025
1.02978
1.02932
1.02895
1.02718
1.02394
1.0195
1.0138
1.00657
0.997558
0.986553
0.97369
0.95941
0.945888
0.935181
0.925892
0.917109
0.909266
0.903123
0.897944
0.895675
0.89412
0.892747
0.893188
0.893993
0.895417
0.897645
0.899486
0.901206
1.06383
1.13205
1.19606
1.24557
1.27576
1.30182
1.31523
1.32303
1.32488
1.32581
1.32429
1.33688
1.35827
1.39126
1.4092
1.39823
1.37762
1.34916
1.31332
1.28242
1.24678
1.23921
1.22442
1.196
1.15607
1.10521
1.04736
0.964816
0.955332
1.00377
1.09447
1.20193
1.2977
1.39223
1.47357
1.53412
1.5793
1.62104
1.64503
1.65755
1.66027
1.64978
1.63065
1.59937
1.55208
1.48438
1.38493
1.2917
1.19555
1.17291
1.14899
1.12629
1.10547
1.09298
1.08031
1.07024
1.06205
1.05736
1.052
1.04875
1.04607
1.04433
1.04343
1.04449
1.04442
1.04411
1.04456
1.04502
1.04561
1.04637
1.04724
1.04796
1.04794
1.04808
1.04818
1.04674
1.04376
1.03958
1.0341
1.02699
1.01797
1.0068
0.993492
0.979288
0.965685
0.95576
0.946537
0.937598
0.929133
0.922174
0.915847
0.911988
0.909338
0.907848
0.90706
0.907426
0.908305
0.909751
0.911512
0.913111
1.07059
1.13124
1.19439
1.24519
1.27581
1.29993
1.31789
1.33428
1.34858
1.36204
1.37774
1.39499
1.41736
1.44677
1.48091
1.49754
1.51129
1.50117
1.48479
1.47042
1.45554
1.45514
1.45595
1.43663
1.40395
1.35254
1.28089
1.18829
1.12078
1.15346
1.21439
1.2869
1.36947
1.44971
1.52012
1.58336
1.64098
1.68823
1.70549
1.71333
1.71529
1.70984
1.69986
1.68249
1.65482
1.61032
1.54002
1.42058
1.31583
1.18891
1.16634
1.14834
1.13063
1.11494
1.1001
1.09054
1.08064
1.07427
1.07065
1.06662
1.06354
1.06145
1.06038
1.06026
1.0614
1.06142
1.06149
1.06208
1.0626
1.06363
1.06466
1.06565
1.06666
1.06693
1.06689
1.06634
1.06378
1.05968
1.05401
1.04666
1.03746
1.02613
1.01249
0.998474
0.98487
0.975629
0.966602
0.958029
0.949799
0.94208
0.93536
0.929869
0.925706
0.923156
0.921987
0.920838
0.920896
0.921578
0.922956
0.924117
1.07753
1.13228
1.1874
1.2397
1.27547
1.2984
1.31891
1.3369
1.35657
1.37417
1.39816
1.41862
1.44695
1.47989
1.51737
1.54692
1.57098
1.59024
1.58232
1.57399
1.57247
1.57457
1.58172
1.58038
1.55399
1.49928
1.41243
1.29926
1.20134
1.22856
1.2737
1.33715
1.40855
1.48118
1.54731
1.60554
1.63677
1.66418
1.68706
1.70738
1.72569
1.7281
1.72876
1.72722
1.7214
1.70294
1.66277
1.59195
1.46045
1.33182
1.18668
1.16017
1.14654
1.13509
1.12245
1.10978
1.10065
1.09105
1.08779
1.08489
1.08172
1.07916
1.07749
1.07747
1.07798
1.07922
1.07935
1.08008
1.08164
1.0831
1.08437
1.08491
1.086
1.08738
1.08731
1.0868
1.085
1.08151
1.0761
1.06856
1.05886
1.04684
1.03234
1.01812
1.00465
0.99625
0.988097
0.980217
0.972548
0.964994
0.957524
0.95092
0.944936
0.941087
0.937746
0.936009
0.934778
0.934544
0.935201
0.935941
1.08638
1.13639
1.18646
1.23234
1.27481
1.2969
1.31872
1.33754
1.35714
1.37621
1.40198
1.42461
1.45397
1.48767
1.52958
1.56731
1.6019
1.6345
1.63889
1.64023
1.64181
1.64857
1.66248
1.64836
1.61569
1.54486
1.40786
1.30998
1.23293
1.2651
1.30827
1.36274
1.41529
1.46606
1.51253
1.5559
1.59185
1.627
1.65726
1.68484
1.70718
1.73019
1.74616
1.75365
1.75748
1.75243
1.73765
1.70158
1.6316
1.50363
1.34954
1.19269
1.16336
1.15479
1.14724
1.1362
1.12652
1.1165
1.10964
1.10778
1.10574
1.10353
1.10161
1.10017
1.10067
1.10113
1.10272
1.10373
1.10464
1.10544
1.10618
1.1074
1.10851
1.10998
1.11017
1.10884
1.10663
1.10317
1.09796
1.09051
1.08054
1.06785
1.05229
1.03728
1.02423
1.01658
1.00913
1.00223
0.995326
0.988352
0.981287
0.974324
0.967766
0.962089
0.957417
0.953472
0.95183
0.95046
0.950135
0.950622
1.09893
1.14316
1.18919
1.23134
1.27069
1.29663
1.3193
1.33815
1.35747
1.37604
1.3987
1.42016
1.44786
1.48131
1.51895
1.5625
1.60088
1.63877
1.66042
1.67195
1.68479
1.69846
1.70431
1.68274
1.62911
1.53577
1.39705
1.25366
1.26619
1.28479
1.31409
1.3527
1.39196
1.43378
1.47562
1.51778
1.5549
1.59144
1.6241
1.6521
1.67731
1.7045
1.72819
1.75016
1.77183
1.77356
1.76962
1.75952
1.73089
1.66785
1.54836
1.3798
1.21282
1.17576
1.16973
1.16391
1.15455
1.14637
1.13807
1.13322
1.13203
1.13054
1.12889
1.12705
1.12632
1.12719
1.12874
1.12965
1.12996
1.13021
1.13166
1.13327
1.13446
1.13412
1.13354
1.13321
1.13114
1.12722
1.1214
1.11341
1.10286
1.08941
1.07261
1.05679
1.04394
1.03708
1.03068
1.02474
1.0187
1.0125
1.00619
0.99969
0.993184
0.986727
0.98072
0.976133
0.971424
0.970087
0.968624
0.9682
1.11504
1.15292
1.1945
1.23287
1.2703
1.29579
1.32036
1.33926
1.35735
1.37618
1.3973
1.41774
1.4434
1.47461
1.50904
1.54857
1.58817
1.62426
1.65864
1.6799
1.70142
1.71054
1.69525
1.6543
1.57599
1.44312
1.34755
1.25612
1.26878
1.28592
1.3099
1.33831
1.36957
1.40444
1.4418
1.47828
1.51504
1.55142
1.58445
1.61528
1.64758
1.67424
1.70336
1.71917
1.73888
1.75671
1.78098
1.78484
1.78331
1.75975
1.70024
1.58784
1.41635
1.24137
1.18997
1.18818
1.18347
1.17598
1.16926
1.16235
1.15843
1.15755
1.15689
1.15621
1.15563
1.15486
1.1563
1.15772
1.15853
1.15919
1.16039
1.16197
1.16243
1.16237
1.16158
1.15993
1.15741
1.15331
1.14722
1.13851
1.12664
1.11149
1.09285
1.07563
1.06312
1.05718
1.05152
1.04634
1.04103
1.03577
1.03039
1.02481
1.01907
1.01316
1.00726
1.00137
0.996027
0.993005
0.990273
0.989583
1.13542
1.16672
1.20318
1.23737
1.27084
1.29851
1.31942
1.34108
1.35761
1.37586
1.39621
1.41585
1.43976
1.46807
1.49859
1.53494
1.57188
1.60839
1.64526
1.6738
1.69617
1.68325
1.64798
1.57777
1.45317
1.36021
1.26527
1.27003
1.27616
1.28713
1.30252
1.32261
1.34843
1.37858
1.41123
1.44475
1.47973
1.5136
1.54608
1.58039
1.6114
1.64267
1.66484
1.688
1.71291
1.74215
1.76752
1.7983
1.80815
1.80084
1.77961
1.72583
1.62194
1.45344
1.28076
1.20885
1.21071
1.20857
1.20411
1.19855
1.19249
1.18969
1.18852
1.188
1.18742
1.18746
1.188
1.18886
1.18985
1.19061
1.19131
1.19227
1.19289
1.19327
1.19312
1.19077
1.18673
1.18147
1.17455
1.16511
1.1521
1.13513
1.11467
1.09569
1.0833
1.07754
1.07251
1.06802
1.06352
1.0593
1.05498
1.05048
1.0457
1.04059
1.03515
1.02952
1.02382
1.01867
1.01599
1.01448
1.15617
1.18286
1.21568
1.24597
1.27564
1.30375
1.32186
1.34283
1.35949
1.37641
1.39503
1.41665
1.43803
1.46232
1.49076
1.52321
1.55546
1.59638
1.63081
1.66539
1.65595
1.62451
1.56006
1.43972
1.3479
1.26263
1.26843
1.27517
1.28097
1.28854
1.29758
1.31258
1.33348
1.35795
1.38559
1.41621
1.4479
1.48071
1.51549
1.54859
1.57967
1.60906
1.63765
1.66806
1.6977
1.7243
1.74368
1.76901
1.79005
1.81645
1.81413
1.79854
1.75359
1.66005
1.49559
1.34347
1.23655
1.24139
1.24211
1.23935
1.23475
1.23069
1.22618
1.22466
1.22375
1.22363
1.22369
1.22365
1.22416
1.22468
1.22516
1.22608
1.22662
1.22643
1.22559
1.22368
1.21946
1.21334
1.20499
1.19397
1.17927
1.15971
1.13776
1.11667
1.10407
1.09871
1.09364
1.08973
1.08594
1.08249
1.0789
1.07546
1.07188
1.0679
1.06334
1.0582
1.05289
1.04723
1.04333
1.04102
1.18205
1.2023
1.23043
1.2581
1.28464
1.31049
1.3276
1.3466
1.36343
1.37918
1.39617
1.41578
1.43787
1.46301
1.48719
1.51462
1.54806
1.58637
1.62142
1.62341
1.59636
1.53674
1.41838
1.32737
1.24079
1.25745
1.2682
1.27931
1.28288
1.28832
1.29606
1.30817
1.32437
1.34439
1.36827
1.39539
1.42474
1.45687
1.48996
1.52135
1.55311
1.58558
1.61696
1.65165
1.67222
1.69562
1.71936
1.74262
1.77181
1.79695
1.828
1.83002
1.82288
1.78526
1.70364
1.54412
1.41738
1.26862
1.27183
1.27508
1.27281
1.26852
1.2646
1.26069
1.25865
1.25814
1.25768
1.25776
1.25787
1.25759
1.25791
1.2583
1.25926
1.26004
1.25915
1.25671
1.25209
1.24549
1.23648
1.22433
1.20779
1.18511
1.1616
1.13749
1.12599
1.11999
1.1156
1.11223
1.10873
1.10572
1.1031
1.10075
1.09814
1.09505
1.09136
1.08719
1.08258
1.07734
1.07348
1.0702
1.20648
1.22436
1.24723
1.27359
1.29715
1.32078
1.33653
1.35378
1.37062
1.38536
1.39971
1.41715
1.43771
1.46231
1.4887
1.51325
1.54514
1.57243
1.58277
1.55937
1.50489
1.39256
1.30064
1.21295
1.23314
1.24821
1.26475
1.27276
1.27976
1.28679
1.29535
1.30651
1.32009
1.33713
1.35827
1.38267
1.41006
1.4395
1.47025
1.5011
1.53261
1.56513
1.59766
1.62388
1.65175
1.67852
1.70257
1.7277
1.75445
1.78603
1.81448
1.84573
1.8545
1.84787
1.81987
1.74519
1.5943
1.46746
1.3126
1.30497
1.30685
1.30553
1.30242
1.29916
1.29517
1.29398
1.29256
1.29174
1.29134
1.29146
1.29193
1.29168
1.29262
1.29296
1.29263
1.29048
1.28545
1.27813
1.26822
1.25485
1.23642
1.21027
1.18484
1.15755
1.14687
1.14111
1.13764
1.13429
1.13144
1.12932
1.12733
1.12573
1.12384
1.12162
1.11883
1.11545
1.11163
1.10715
1.10351
1.1002
1.23458
1.24803
1.26573
1.28955
1.31112
1.33462
1.34945
1.36493
1.38168
1.39558
1.40699
1.42156
1.43958
1.46139
1.48616
1.51402
1.53812
1.54247
1.5212
1.46961
1.36287
1.26927
1.18015
1.19988
1.21947
1.2389
1.25392
1.26822
1.27774
1.28758
1.29801
1.30917
1.32241
1.338
1.3569
1.37827
1.40275
1.42935
1.45799
1.48822
1.51867
1.54945
1.57885
1.60973
1.63966
1.66481
1.69092
1.71812
1.74616
1.77505
1.80145
1.83303
1.86427
1.87681
1.8765
1.84626
1.78435
1.65429
1.51407
1.36153
1.33851
1.34177
1.3423
1.33999
1.33641
1.33324
1.33034
1.32805
1.32571
1.32555
1.32584
1.32615
1.32761
1.32805
1.32714
1.3254
1.32069
1.31306
1.30224
1.28705
1.26578
1.23541
1.20712
1.17725
1.16703
1.16303
1.15944
1.15695
1.15518
1.15347
1.15228
1.15149
1.1504
1.14866
1.1462
1.14331
1.14021
1.13701
1.13389
1.13133
1.25906
1.27072
1.28608
1.3067
1.3277
1.35054
1.36572
1.38023
1.39569
1.41026
1.41868
1.43011
1.44482
1.46305
1.48552
1.50789
1.51145
1.48951
1.43766
1.33447
1.23713
1.14644
1.16651
1.18849
1.21105
1.22878
1.24632
1.2626
1.27656
1.29005
1.3016
1.31367
1.32679
1.34138
1.35797
1.37726
1.39913
1.42366
1.45151
1.48086
1.50956
1.53937
1.57103
1.60262
1.63006
1.65819
1.68632
1.71441
1.7421
1.76965
1.79677
1.82212
1.85353
1.88037
1.90761
1.89949
1.88086
1.82416
1.71883
1.56677
1.41995
1.37265
1.37699
1.38044
1.3782
1.37412
1.3699
1.36655
1.36323
1.36198
1.36041
1.36045
1.36077
1.36143
1.36012
1.35807
1.35349
1.34605
1.33504
1.31853
1.29445
1.25968
1.22744
1.19575
1.18764
1.18434
1.18187
1.18063
1.17951
1.17845
1.17855
1.17806
1.1767
1.17508
1.17311
1.17157
1.1696
1.167
1.16459
1.16246
1.29662
1.29382
1.30674
1.32349
1.34534
1.36614
1.3876
1.39886
1.41199
1.42701
1.43378
1.44269
1.45403
1.46853
1.48512
1.48519
1.46284
1.40973
1.30582
1.20394
1.11011
1.13133
1.15548
1.18043
1.19955
1.21989
1.24021
1.2605
1.27879
1.29438
1.3073
1.32041
1.33404
1.34863
1.3646
1.38256
1.40262
1.42553
1.45033
1.47707
1.5057
1.53612
1.56685
1.59711
1.62836
1.65864
1.68405
1.70993
1.73759
1.76568
1.7919
1.81957
1.84302
1.87309
1.89883
1.92774
1.92569
1.91217
1.8631
1.77198
1.62416
1.47771
1.4032
1.4089
1.41381
1.41182
1.40824
1.40355
1.39931
1.39569
1.39249
1.39275
1.3929
1.39259
1.39146
1.3893
1.3857
1.37881
1.36743
1.34893
1.32127
1.28217
1.24479
1.21485
1.20917
1.20647
1.20552
1.20467
1.20482
1.20547
1.20499
1.20401
1.20307
1.20261
1.20198
1.20101
1.1996
1.19783
1.19632
1.19489
1.36936
1.33659
1.34083
1.35159
1.3696
1.38692
1.40939
1.42089
1.43293
1.44642
1.45111
1.45822
1.46549
1.47682
1.47102
1.4465
1.3904
1.28306
1.17565
1.07638
1.09802
1.12385
1.15013
1.1715
1.1938
1.21647
1.23967
1.26221
1.28281
1.30109
1.31698
1.33116
1.34574
1.36088
1.37689
1.39404
1.41298
1.43358
1.45656
1.48167
1.50849
1.53638
1.56503
1.59526
1.62512
1.65593
1.68298
1.70894
1.73566
1.76338
1.79176
1.81654
1.84224
1.86773
1.89456
1.92281
1.95372
1.9514
1.94045
1.8961
1.81428
1.67268
1.54938
1.43246
1.43628
1.4407
1.43951
1.43625
1.43198
1.42802
1.42503
1.42361
1.42298
1.42379
1.42334
1.42041
1.41568
1.40843
1.39657
1.37641
1.3446
1.30086
1.25789
1.23359
1.22911
1.2289
1.22855
1.22972
1.23081
1.23094
1.23064
1.22996
1.23014
1.23064
1.23045
1.22999
1.22932
1.22839
1.22758
1.2269
1.40509
1.38281
1.36482
1.37672
1.3924
1.4084
1.42511
1.44157
1.45137
1.46437
1.47081
1.47425
1.47692
1.46937
1.44262
1.38316
1.27399
1.15777
1.04996
1.06928
1.09625
1.12281
1.14533
1.16842
1.19217
1.21686
1.24112
1.26456
1.28681
1.30786
1.32631
1.34421
1.36
1.37611
1.39267
1.41002
1.42837
1.44812
1.46942
1.49227
1.51697
1.5431
1.57057
1.5991
1.62821
1.65736
1.68577
1.71269
1.7396
1.76592
1.79259
1.81714
1.84204
1.86607
1.88969
1.91766
1.94452
1.97612
1.97323
1.96012
1.92959
1.85871
1.72181
1.61314
1.47167
1.46577
1.46859
1.47086
1.46808
1.46398
1.45965
1.45638
1.45339
1.45371
1.45422
1.45213
1.44683
1.43817
1.42385
1.39948
1.35958
1.31428
1.26575
1.24885
1.24905
1.25007
1.25199
1.25395
1.25547
1.25587
1.25629
1.25663
1.25725
1.25751
1.25742
1.25732
1.25751
1.25749
1.25752
1.25751
1.63073
1.43668
1.40106
1.4029
1.41682
1.43078
1.442
1.45756
1.46874
1.48152
1.48821
1.49026
1.4796
1.44965