/*--------------------------------*- C++ -*----------------------------------*\
| =========                 |                                                 |
| \\      /  F ield         | OpenFOAM: The Open Source CFD Toolbox           |
|  \\    /   O peration     | Version:  v2106                                 |
|   \\  /    A nd           | Website:  www.openfoam.com                      |
|    \\/     M anipulation  |                                                 |
\*---------------------------------------------------------------------------*/
FoamFile
{
    version     2.0;
    format      ascii;
    arch        "LSB;label=32;scalar=64";
    class       volScalarField;
    location    "3";
    object      p;
}
// * * * * * * * * * * * * * * * * * * * * * * * * * * * * * * * * * * * * * //

dimensions      [1 -1 -2 0 0 0 0];

internalField   nonuniform List<scalar> 
5250
(
1
1
1
1
1
1
1
1
1.00002
1.00011
1.00149
1.01074
1.11559
1.75769
4.3698
10.9912
11.1939
11.1529
11.4009
11.6278
11.768
11.9247
12.0418
12.1286
12.1744
1
1
1
1
1
1
1
1
1.00002
1.0001
1.00146
1.01045
1.11268
1.74234
4.31279
10.8954
11.2349
11.1112
11.3804
11.6122
11.7519
11.9117
12.0262
12.1141
12.1602
1
1
1
1
1
1
1
1
1.00002
1.0001
1.00138
1.00989
1.10651
1.70965
4.19203
10.6881
11.2747
11.0557
11.3242
11.5684
11.7049
11.8517
11.9636
12.0459
12.0871
1
1
1
1
1
1
1
1
1.00002
1.00008
1.00135
1.00891
1.10124
1.66131
4.0031
10.35
11.3588
10.9695
11.2583
11.4881
11.6067
11.7557
11.8649
11.944
11.9848
1
1
1
1
1
1
1
1
1.00001
1.00012
1.0011
1.00932
1.08613
1.59378
3.75971
9.87055
11.5342
10.8265
11.1506
11.3648
11.4951
11.6268
11.7361
11.8075
11.8444
1
1
1
1
1
1
1
1
1.00001
1.0001
1.00084
1.00764
1.0655
1.51215
3.45673
9.25553
11.6741
10.6579
11.0336
11.2493
11.3511
11.4826
11.5643
11.6268
11.6436
1
1
1
1
1
1
1
1
1.00001
1.00008
1.00069
1.00634
1.05277
1.42089
3.07489
8.50308
11.9114
10.4991
10.9025
11.0731
11.1844
11.2499
11.3498
11.3637
11.3825
1
1
1
1
1
1
1
1
1.00001
1.00006
1.00049
1.00499
1.03776
1.32788
2.70027
7.54962
12.0956
10.3771
10.8145
10.9298
11.0057
11.0585
11.086
11.1015
10.9666
1
1
1
1
1
1
1
1
1
1.00004
1.00033
1.00299
1.02596
1.25009
2.36682
6.60674
12.1138
10.2845
10.6356
10.7978
10.7595
10.7871
10.6892
10.63
10.4024
1
1
1
1
1
1
1
1
1
1.00003
1.00025
1.00204
1.01872
1.19514
2.12395
5.75533
11.4582
10.3317
10.5218
10.6515
10.4651
10.5349
10.2806
10.2873
9.33755
1
1
1
1
1
1
1
1
1
1.00003
1.00013
1.00187
1.0134
1.14343
1.8777
4.913
10.4707
10.3151
10.3646
10.4535
10.1865
10.1454
9.66392
9.32962
6.86552
1
1
1
1
1
1
1
1
1
1.00002
1.0001
1.00135
1.0093
1.10148
1.66508
4.07068
9.41371
10.4358
10.1181
10.0767
9.92571
9.72836
9.10754
8.56946
6.64111
1
1
1
1
1
1
1
1
1
1.00001
1.0001
1.00086
1.00846
1.06567
1.47903
3.32395
8.15418
10.4697
9.8959
9.75624
9.59147
9.33505
8.76999
8.12168
6.73645
1
1
1
1
1
1
1
1
1
1.00001
1.00005
1.00041
1.00402
1.0324
1.30006
2.57454
6.81107
10.4459
9.62144
9.54335
9.3424
9.03983
8.50962
7.86707
6.75719
1
1
1
1
1
1
1
1
1
1
1.00001
1.0003
1.00144
1.01904
1.19979
2.14978
5.58498
10.0234
9.49975
9.34253
9.15495
8.79975
8.30729
7.66762
6.72906
1
1
1
1
1
1
1
1
1
1
1.00002
1.00012
1.00173
1.01153
1.12753
1.78425
4.47672
8.9499
9.49613
9.19737
8.9245
8.54462
8.08907
7.496
6.69743
1
1
1
1
1
1
1
1
1
1
1.00001
1.0001
1.00092
1.00784
1.07162
1.50953
3.45876
7.51171
9.42262
8.97651
8.6564
8.31174
7.91212
7.39086
6.69192
1
1
1
1
1
1
1
1
1
1
1
1.00006
1.00029
1.00387
1.02758
1.27556
2.47391
6.114
9.27975
8.77938
8.46792
8.17409
7.79927
7.31065
6.67608
1
1
1
1
1
1
1
1
1
1
1
1.00003
1.00019
1.00235
1.01668
1.16856
1.99443
4.77749
8.51481
8.81072
8.4515
8.10465
7.71405
7.24578
6.66365
1
1
1
1
1
1
1
1
1
1
1
1.00002
1.00012
1.00113
1.00936
1.08246
1.58087
3.61629
7.20436
8.71378
8.34815
7.96072
7.57799
7.15122
6.63338
1
1
1
1
1
1
1
1
1
1
1
1
1.00007
1.00034
1.00452
1.03152
1.31263
2.57868
5.74995
8.41769
8.14684
7.82888
7.47903
7.08676
6.61715
1
1
1
1
1
1
1
1
1
1
1
1
1.00003
1.00025
1.00218
1.01767
1.14947
1.92484
4.32959
7.57207
8.149
7.83083
7.45602
7.0644
6.62267
1
1
1
1
1
1
1
1
1
1
1
1
1
1.00012
1.00052
1.00808
1.05116
1.50873
3.17726
6.22083
8.01945
7.74085
7.40738
7.03477
6.6209
1
1
1
1
1
1
1
1
1
1
1
1
1.00001
1.00005
1.00038
1.00327
1.02527
1.20913
2.17187
4.75964
7.44955
7.66304
7.37
7.01343
6.62042
1
1
1
1
1
1
1
1
1
1
1
1
1
1
1.00019
1.00063
1.01176
1.06727
1.68261
3.49739
6.32014
7.59901
7.33627
7.01603
6.64661
1
1
1
1
1
1
1
1
1
1
1
1
1
1.00001
1.00007
1.0005
1.0043
1.03187
1.26557
2.3842
4.89435
7.12884
7.2534
6.9846
6.66136
1
1
1
1
1
1
1
1
1
1
1
1
1
1
0.999999
1.00024
1.00056
1.01365
1.07213
1.74456
3.54686
6.11045
7.27231
6.99781
6.68032
1
1
1
1
1
1
1
1
1
1
1
1
1
1
1.00001
1.00008
1.00056
1.00478
1.03364
1.28576
2.41302
4.74754
6.81643
6.9647
6.68085
1
1
1
1
1
1
1
1
1
1
1
1
1
1
1
1.00006
1.00033
1.00022
1.014
1.07292
1.72515
3.40567
5.77759
6.88974
6.68051
1
1
1
1
1
1
1
1
1
1
1
1
1
1
1
1.00001
1.00008
1.00051
1.00459
1.03135
1.2759
2.31873
4.45561
6.3977
6.69684
1
1
1
1
1
1
1
1
1
1
1
1
1
1
1
1
0.999978
0.999908
0.998544
1.00992
1.05869
1.64214
3.12716
5.37479
6.61652
1
1
1
1
1
1
1
1
1
1
1
1
1
1
1
1
1.00001
1.00006
1.00044
1.00403
1.02815
1.2366
2.28594
4.16703
6.01975
1
1
1
1
1
1
1
1
1
1
1
1
1
1
1
1
1
1.00002
1.00008
1.0005
1.00707
1.0584
1.43931
2.73565
4.69687
1
1
1
1
1
1
1
1
1
1
1
1
1
1
1
1
1
1
1.00007
1.00032
1.00427
1.02511
1.00677
1.7438
3.45798
1
1
1
1
1
1
1
1
1
1
1
1
1
1
1
1
1
1
1.00001
1.0001
1.00053
1.00606
1.03348
1.30801
2.36903
1
1
1
1
1
1
1
1
1
1
1
1
1
1
1
1
1
1
1.00001
1.00002
1.00025
1.00127
1.01061
1.04692
1.60576
1
1
1
1
1
1
1
1
1
1
1
1
1
1
1
1
1
1
1
1.00001
1.00007
1.00049
1.00386
1.0223
1.2048
1
1
1
1
1
1
1
1
1
1
1
1
1
1
1
1
1
1
1
1
1.00001
1.00011
1.0007
1.0061
1.03669
1
1
1
1
1
1
1
1
1
1
1
1
1
1
1
1
1
1
1
0.999999
0.999987
0.99989
1.0002
1.00096
1.01378
1
1
1
1
1
1
1
1
1
1
1
1
1
1
1
1
1
1
1
1
1
1.00001
1.00006
1.00043
1.00268
1
1
1
1
1
1
1
1
1
1
1
1
1
1
1
1
1
1
1
1
0.999999
0.999997
1.00001
1.00007
1.00086
1
1
1
1
1
1
1
1
1
1
1
1
1
1
1
1
1
1
1
1
1
1
1
1.00003
1.00018
1
1
1
1
1
1
1
1
1
1
1
1
1
1
1
1
1
1
1
1
1
1
1
1.00001
1.00006
1
1
1
1
1
1
1
1
1
1
1
1
1
1
1
1
1
1
1
1
1
1
1
1
1.00001
1
1
1
1
1
1
1
1
1
1
1
1
1
1
1
1
1
1
1
1
1
1
1
1
1.00001
1
1
1
1
1
1
1
1
1
1
1
1
1
1
1
1
1
1
1
1
1
1
1
1
1.00001
1
1
1
1
1
1
1
1
1
1
1
1
1
1
1
1
1
1
1
1
1
1
1
1
1.00001
1
1
1
1
1
1
1
1
1
1
1
1
1
1
1
1
1
1
1
1
1
1
1
1
1.00001
1
1
1
1
1
1
1
1
1
1
1
1
1
1
1
1
1
1
1
1
1
1
1
1
1.00001
1
1
1
1
1
1
1
1
1
1
1
1
1
1
1
1
1
1
1
1
1
1
1
1
1.00001
2.86054
3.4848
4.11059
3.51611
3.8344
3.73161
3.75482
3.73904
3.71032
3.64537
3.4583
3.02755
2.6344
2.39939
2.29077
2.25811
2.26202
2.27571
2.24192
2.14782
2.07098
2.03042
2.01251
2.00318
1.99095
1.97655
1.96255
1.9554
1.95616
1.98779
2.04816
2.12624
2.2239
2.34504
2.49114
2.65547
2.80896
2.96972
3.15081
3.3452
3.55316
3.75035
3.93191
4.1384
4.35552
4.54632
4.7222
4.8898
5.06062
5.21522
5.35772
5.47481
5.55372
5.60852
5.64132
5.66066
5.66249
5.65891
5.64835
5.63156
5.61306
5.59353
5.57464
5.55658
5.53945
5.523
5.50829
5.49408
5.47963
5.46435
5.44824
5.43127
5.41294
5.39577
5.3798
5.36867
5.36317
5.36193
5.36718
5.38291
5.40577
5.43768
5.47398
5.51102
5.53828
5.5487
5.54928
5.54673
5.54129
5.53386
5.52475
5.51464
5.5045
5.49418
5.48615
5.48064
5.47931
5.47925
5.48068
5.48198
4.34308
4.26801
3.71691
3.64917
4.04452
3.84792
3.77543
3.73199
3.71757
3.60447
3.34993
2.95648
2.61366
2.3924
2.31384
2.27049
2.26532
2.27299
2.26695
2.19133
2.08672
2.01868
1.99151
1.98739
1.98033
1.97556
1.96817
1.96467
1.9632
1.99568
2.05936
2.14235
2.23894
2.35342
2.48384
2.63535
2.77382
2.92039
3.10014
3.29934
3.52532
3.76305
3.95936
4.14629
4.35694
4.53442
4.70925
4.85738
5.01143
5.19069
5.3394
5.45454
5.53705
5.59222
5.6278
5.64943
5.65335
5.64975
5.64128
5.62563
5.60726
5.58712
5.56771
5.54951
5.53235
5.51565
5.50163
5.48725
5.47312
5.45837
5.44071
5.42436
5.40688
5.39015
5.37563
5.3637
5.35741
5.35734
5.36392
5.37929
5.4028
5.43563
5.47313
5.51188
5.54168
5.55296
5.55405
5.55186
5.54666
5.53993
5.53202
5.52066
5.50934
5.49862
5.48922
5.48251
5.47963
5.47986
5.48012
5.48157
5.17419
4.65971
4.14171
3.8756
3.85968
3.69018
3.70881
3.77804
3.75048
3.71757
3.45463
2.88074
2.47777
2.30115
2.24074
2.23288
2.23257
2.21814
2.19314
2.14139
2.05818
2.00998
1.98847
1.98661
1.9823
1.98129
1.97474
1.97169
1.96855
1.9907
2.04456
2.11515
2.20567
2.327
2.47152
2.65198
2.81421
2.95187
3.14345
3.32214
3.51458
3.69015
3.86548
4.08811
4.30847
4.50943
4.6886
4.8473
5.00829
5.16949
5.30552
5.42006
5.50084
5.56158
5.59316
5.61763
5.62466
5.62238
5.61677
5.59984
5.58325
5.56519
5.54706
5.52986
5.51493
5.49638
5.48306
5.47087
5.45778
5.44424
5.42946
5.41236
5.39372
5.37646
5.36333
5.35187
5.346
5.34586
5.35246
5.36885
5.39374
5.42806
5.46821
5.51065
5.54407
5.55834
5.56183
5.56033
5.55641
5.55083
5.54131
5.53393
5.52272
5.51017
5.49807
5.48973
5.48416
5.4819
5.48118
5.48157
5.43886
4.73317
4.27597
3.94621
3.89574
3.84163
3.81048
3.76219
3.73786
3.59599
3.17776
2.69849
2.46592
2.31899
2.25635
2.27964
2.26453
2.26018
2.24828
2.22245
2.12803
2.01386
1.95202
1.96168
1.96302
1.97192
1.96442
1.9684
1.9664
1.99167
2.05202
2.1368
2.22533
2.33222
2.44894
2.57992
2.73972
2.87832
3.04793
3.24543
3.46761
3.7037
3.87851
4.0673
4.27342
4.46091
4.63966
4.80033
4.95474
5.11527
5.26265
5.37352
5.45657
5.51367
5.54956
5.57887
5.58139
5.58594
5.58672
5.57163
5.55669
5.53711
5.51977
5.505
5.4896
5.47307
5.45975
5.44812
5.43404
5.41931
5.40637
5.38955
5.37104
5.35489
5.3415
5.33178
5.32747
5.32837
5.33592
5.35317
5.37995
5.41655
5.46044
5.50729
5.54571
5.56595
5.57424
5.57507
5.5733
5.56782
5.55957
5.54909
5.54049
5.52792
5.51287
5.49948
5.49085
5.48621
5.48339
5.48121
5.66263
4.91134
4.37387
4.09129
4.00907
3.90466
3.80877
3.74432
3.70167
3.56151
3.26541
2.83826
2.55749
2.36543
2.27249
2.25942
2.24172
2.23027
2.20295
2.14599
2.03197
1.96354
1.97009
1.98144
1.97746
1.98255
1.9718
1.96979
1.96868
1.98405
2.03146
2.0942
2.17299
2.29305
2.42316
2.56865
2.74547
2.88635
3.04892
3.19298
3.37097
3.59665
3.77987
3.96704
4.16597
4.37171
4.57554
4.76712
4.93545
5.08484
5.22263
5.32059
5.39722
5.45499
5.49377
5.51795
5.53168
5.53191
5.53276
5.52379
5.5098
5.49157
5.47662
5.46647
5.45427
5.44418
5.42533
5.4094
5.39651
5.38524
5.37293
5.35679
5.33777
5.32186
5.31189
5.30434
5.3013
5.30312
5.31166
5.32997
5.35862
5.39767
5.44506
5.49726
5.54169
5.56831
5.58373
5.5906
5.59088
5.58791
5.58231
5.57228
5.55978
5.5489
5.53328
5.51693
5.503
5.49416
5.4896
5.48804
5.78396
5.07891
4.56569
4.24663
4.10873
3.99242
3.87057
3.77089
3.68894
3.54406
3.20988
2.85097
2.55346
2.38155
2.30028
2.28758
2.26977
2.25327
2.23464
2.18838
2.0926
2.00129
1.95688
1.95575
1.95775
1.97275
1.96449
1.97109
1.97036
1.99206
2.03944
2.1053
2.17505
2.25489
2.34669
2.45547
2.58397
2.72244
2.88149
3.03083
3.24695
3.49213
3.71205
3.89273
4.07469
4.25996
4.46362
4.6782
4.87039
5.02471
5.15187
5.25485
5.33428
5.39464
5.43521
5.4578
5.48485
5.48113
5.47384
5.47772
5.45963
5.44606
5.43531
5.42599
5.40997
5.40348
5.38679
5.36909
5.3536
5.34015
5.33189
5.32035
5.30242
5.28147
5.27078
5.26688
5.26537
5.26833
5.27873
5.29884
5.32985
5.37151
5.42315
5.48062
5.53088
5.56515
5.58982
5.60569
5.61282
5.61404
5.60804
5.60095
5.58496
5.5737
5.55765
5.53927
5.52144
5.50723
5.49945
5.49795
5.90103
5.21947
4.73581
4.39232
4.19658
4.06935
3.9435
3.83786
3.70796
3.57221
3.26443
2.91086
2.60522
2.44529
2.34359
2.29687
2.26787
2.23879
2.21536
2.15027
2.05708
1.99158
1.96697
1.97258
1.97461
1.98621
1.9834
1.98966
2.00765
2.03845
2.06603
2.10487
2.14959
2.18445
2.23382
2.30732
2.39236
2.51411
2.63207
2.77272
2.97538
3.19831
3.42726
3.67152
3.92715
4.16434
4.3764
4.57696
4.78257
4.96137
5.09321
5.19078
5.266
5.32374
5.36933
5.39276
5.40936
5.42072
5.41705
5.42006
5.41462
5.3985
5.38577
5.37336
5.36281
5.3462
5.33933
5.32877
5.31058
5.29178
5.27802
5.26304
5.25268
5.2348
5.22285
5.22085
5.22189
5.22642
5.23807
5.25962
5.29311
5.33766
5.39298
5.45532
5.51073
5.55093
5.58412
5.61028
5.6276
5.63551
5.63495
5.62787
5.61682
5.60112
5.58402
5.56536
5.54566
5.52628
5.51411
5.5114
5.96823
5.3453
4.85164
4.50412
4.30025
4.14815
4.00737
3.88838
3.75504
3.61837
3.36347
3.00729
2.71974
2.50977
2.40133
2.33122
2.28379
2.24868
2.22653
2.17533
2.09329
2.02522
1.98409
1.97051
1.97418
1.99174
2.02675
2.05855
2.11834
2.18197
2.20014
2.21375
2.20811
2.19031
2.19255
2.21825
2.25541
2.32215
2.38974
2.48951
2.62364
2.77823
2.96416
3.21397
3.5273
3.91428
4.25897
4.50497
4.68377
4.86198
5.01206
5.12047
5.19558
5.2554
5.30039
5.33539
5.35236
5.36287
5.3651
5.3605
5.36288
5.3563
5.33587
5.3183
5.31626
5.30099
5.28616
5.27513
5.25784
5.24529
5.22749
5.20683
5.19458
5.18227
5.16982
5.16521
5.16756
5.17501
5.18925
5.21271
5.24814
5.29523
5.35447
5.42115
5.48037
5.52472
5.56501
5.60107
5.63018
5.64977
5.65867
5.65585
5.6492
5.6319
5.61209
5.5971
5.57558
5.55408
5.53582
5.52932
6.02771
5.44355
4.96559
4.61808
4.40132
4.23094
4.0975
3.95677
3.81389
3.66705
3.44938
3.16045
2.88825
2.62498
2.4676
2.37194
2.31688
2.27142
2.23886
2.20425
2.12634
2.03096
1.97529
1.9594
1.97886
2.01284
2.1048
2.16419
2.3503
2.45275
2.45477
2.43075
2.36168
2.28251
2.23456
2.22086
2.22075
2.24285
2.27117
2.31883
2.39048
2.47233
2.59041
2.75504
2.98755
3.3231
3.80284
4.33282
4.66439
4.78169
4.91349
5.03642
5.12556
5.18357
5.22927
5.2639
5.2915
5.30119
5.30663
5.30761
5.3029
5.30338
5.29105
5.26752
5.2539
5.25091
5.23222
5.21767
5.2054
5.1899
5.17256
5.1551
5.14115
5.12797
5.11078
5.10337
5.10735
5.1172
5.13381
5.15924
5.19675
5.24637
5.3092
5.37963
5.44009
5.48637
5.53036
5.57291
5.61242
5.64418
5.66565
5.67498
5.67306
5.66119
5.64613
5.62562
5.60818
5.58621
5.56547
5.55387
6.06512
5.52577
5.06258
4.72347
4.49312
4.32005
4.17721
4.03328
3.88664
3.73933
3.54129
3.31811
3.04767
2.79648
2.58543
2.4438
2.35541
2.30024
2.25945
2.22621
2.16139
2.07302
2.00342
1.98447
2.00574
2.05752
2.20863
2.44846
2.74892
2.82736
2.81237
2.73573
2.60486
2.48181
2.38827
2.31519
2.262
2.24184
2.23985
2.25292
2.27484
2.31147
2.36777
2.45176
2.58322
2.79468
3.13393
3.65165
4.33927
4.77507
4.86366
4.94193
5.03504
5.1102
5.16226
5.19739
5.22667
5.24532
5.2481
5.25158
5.25225
5.24652
5.24332
5.22729
5.20173
5.191
5.18125
5.16326
5.14872
5.13496
5.11624
5.10245
5.08041
5.0657
5.05505
5.04294
5.04402
5.05473
5.07339
5.10074
5.14008
5.19194
5.2583
5.33163
5.39194
5.4374
5.48167
5.52726
5.57285
5.61565
5.65053
5.67459
5.68707
5.68415
5.67684
5.65731
5.63747
5.61985
5.60127
5.58545
6.10159
5.60277
5.15816
4.82049
4.57837
4.40241
4.24465
4.10411
3.95613
3.8032
3.64777
3.44198
3.19794
2.95277
2.73168
2.56146
2.42806
2.34432
2.29877
2.25684
2.20089
2.12499
2.05335
2.01912
2.05044
2.16126
2.45808
2.92091
3.25078
3.27679
3.20429
3.0514
2.86649
2.70305
2.57076
2.47677
2.4068
2.3476
2.30197
2.27037
2.25734
2.26263
2.27766
2.30474
2.35969
2.45835
2.61577
2.93594
3.47728
4.2698
4.81366
4.90901
4.94039
5.00984
5.07687
5.13009
5.16107
5.18413
5.19125
5.19084
5.19288
5.19526
5.1863
5.17723
5.16162
5.13744
5.12575
5.1145
5.09772
5.0756
5.05457
5.0429
5.02497
5.00717
4.99599
4.98795
4.98467
4.99245
5.0107
5.03974
5.08142
5.13599
5.20646
5.28177
5.33937
5.38199
5.42448
5.46839
5.51538
5.5626
5.60805
5.64635
5.6747
5.68946
5.69104
5.68463
5.66902
5.64971
5.6353
5.62097
6.14138
5.67445
5.24955
4.90867
4.65925
4.47886
4.31451
4.17024
4.0235
3.87197
3.73619
3.53985
3.31589
3.08777
2.87061
2.6704
2.51545
2.41247
2.35197
2.29243
2.23251
2.15439
2.10796
2.09658
2.15751
2.37293
2.85679
3.47808
3.71646
3.66001
3.52918
3.34005
3.15046
2.98428
2.83585
2.71256
2.61194
2.52162
2.44334
2.37847
2.32243
2.28739
2.27271
2.2617
2.27164
2.29506
2.35884
2.50305
2.79517
3.32744
4.17926
4.81329
4.92811
4.93411
4.97997
5.03432
5.08627
5.11655
5.13208
5.13578
5.13292
5.13481
5.13476
5.12514
5.11438
5.09751
5.07628
5.05771
5.04477
5.02216
5.00411
4.98685
4.96714
4.94975
4.93359
4.92851
4.92691
4.93251
4.94822
4.977
5.02067
5.07938
5.15536
5.23222
5.2859
5.32447
5.36233
5.40265
5.44638
5.49315
5.54186
5.58965
5.63201
5.66452
5.68567
5.69261
5.69065
5.679
5.66308
5.65055
6.17223
5.73102
5.32502
4.98442
4.7356
4.5431
4.37821
4.23039
4.08585
3.94201
3.81469
3.635
3.43365
3.22362
3.00814
2.80159
2.62171
2.49695
2.41033
2.34157
2.27527
2.20605
2.17933
2.22251
2.37292
2.77982
3.42745
4.00324
4.01946
3.93791
3.80945
3.63845
3.46344
3.29624
3.13259
2.97765
2.84292
2.72494
2.62564
2.5425
2.46921
2.40444
2.34298
2.29072
2.26248
2.25301
2.2724
2.32014
2.42827
2.68069
3.20377
4.05556
4.76713
4.91926
4.91427
4.95007
4.99955
5.04274
5.06548
5.07631
5.07718
5.07333
5.0732
5.07045
5.06128
5.04586
5.03027
5.0092
4.99734
4.98345
4.95815
4.93266
4.91046
4.89513
4.88373
4.87115
4.86579
4.87232
4.88954
4.9197
4.96468
5.02706
5.10878
5.18743
5.23699
5.27035
5.30247
5.33726
5.37508
5.41745
5.46381
5.51246
5.56201
5.60766
5.64719
5.67357
5.69024
5.69052
5.68318
5.67225
6.19805
5.78223
5.39662
5.06064
4.80592
4.60774
4.44082
4.29159
4.15073
4.0048
3.8783
3.71997
3.54134
3.33997
3.12703
2.92569
2.73664
2.59501
2.48263
2.39561
2.30515
2.28442
2.3109
2.43388
2.77981
3.38807
4.00818
4.27962
4.2419
4.14401
4.03569
3.88309
3.7178
3.55132
3.38015
3.22162
3.07812
2.94629
2.83061
2.7283
2.63043
2.53781
2.46364
2.40338
2.34807
2.29767
2.26823
2.26552
2.28551
2.37728
2.60892
3.10245
3.92726
4.69997
4.89981
4.88841
4.90802
4.95541
4.99415
5.01262
5.01954
5.0188
5.01722
5.01106
5.01083
4.99865
4.98261
4.96187
4.94338
4.93204
4.90967
4.88163
4.86351
4.84097
4.82592
4.81729
4.81232
4.81583
4.83123
4.86274
4.91082
4.97926
5.06829
5.1487
5.19442
5.22235
5.24879
5.27785
5.3083
5.3439
5.3834
5.42797
5.47609
5.52556
5.57559
5.62043
5.65662
5.67749
5.68388
5.67532
6.24218
5.83909
5.46703
5.13798
4.87618
4.66954
4.50622
4.35001
4.21423
4.06984
3.93834
3.7864
3.63021
3.44577
3.24651
3.04737
2.85994
2.69713
2.55999
2.44195
2.39843
2.42449
2.54839
2.86305
3.43777
4.06447
4.36416
4.36691
4.33002
4.2767
4.20249
4.07433
3.93858
3.7855
3.62117
3.46197
3.30634
3.16131
3.02989
2.90539
2.79142
2.69881
2.61964
2.54952
2.47922
2.40561
2.32845
2.27596
2.25842
2.28026
2.35172
2.54949
3.01372
3.81218
4.63477
4.89898
4.87064
4.87449
4.90607
4.93827
4.95817
4.96319
4.96211
4.96224
4.95619
4.94618
4.93503
4.92027
4.89861
4.88135
4.86133
4.83416
4.81266
4.7931
4.76838
4.75891
4.76115
4.76656
4.78095
4.81211
4.86251
4.93845
5.03643
5.11994
5.16216
5.18578
5.20658
5.22928
5.25372
5.28173
5.31238
5.34826
5.38948
5.43605
5.48666
5.5404
5.58917
5.6301
5.65414
5.65618
6.28623
5.90059
5.53806
5.21223
4.94451
4.73026
4.56671
4.40761
4.26657
4.1302
3.99233
3.84992
3.69784
3.52724
3.34809
3.16772
2.98518
2.8
2.63153
2.55703
2.57874
2.68
2.98665
3.5453
4.19533
4.46224
4.44793
4.4218
4.3969
4.38461
4.32652
4.2271
4.11907
3.9794
3.82756
3.67107
3.51512
3.36716
3.22357
3.0901
2.97261
2.86803
2.77186
2.67729
2.58866
2.5149
2.44658
2.37244
2.30818
2.27554
2.28329
2.34183
2.52177
2.92953
3.67081
4.53643
4.90143
4.8581
4.84299
4.85635
4.8824
4.90156
4.90854
4.91287
4.90345
4.89516
4.88834
4.87263
4.85344
4.83632
4.81467
4.78981
4.76186
4.74071
4.72037
4.70633
4.70531
4.71289
4.731
4.76525
4.81917
4.90296
5.01205
5.10043
5.14002
5.15924
5.17699
5.19466
5.21224
5.23217
5.25475
5.28164
5.31351
5.35102
5.39568
5.4469
5.50025
5.5505
5.5912
5.60739
6.32941
5.96631
5.60911
5.2899
5.01023
4.79325
4.62383
4.46761
4.32238
4.18422
4.04996
3.91493
3.76033
3.58795
3.42697
3.25865
3.08478
2.89284
2.7777
2.75898
2.84524
3.13823
3.68287
4.38339
4.67305
4.59262
4.52172
4.48894
4.4795
4.46424
4.40728
4.33736
4.2484
4.13201
4.00019
3.86034
3.71057
3.56022
3.41051
3.27583
3.14732
3.02865
2.90946
2.80843
2.72958
2.65052
2.57908
2.50219
2.42577
2.34848
2.29855
2.29583
2.33483
2.48891
2.85845
3.51768
4.38791
4.85673
4.83012
4.79907
4.80385
4.82742
4.84784
4.8572
4.8518
4.84588
4.83629
4.81806
4.80744
4.78717
4.76618
4.74704
4.72091
4.6903
4.67045
4.65932
4.65748
4.66447
4.68369
4.72142
4.7822
4.87797
5.00076
5.09477
5.1309
5.14753
5.16163
5.17371
5.18608
5.19992
5.21414
5.23007
5.25173
5.2814
5.31776
5.36172
5.40884
5.45916
5.50448
5.53116
6.36639
6.025
5.68169
5.3704
5.08649
4.85627
4.68141
4.52103
4.37069
4.22884
4.10129
3.96954
3.81869
3.65474
3.48697
3.32805
3.15353
3.02687
2.98773
3.04945
3.32425
3.86849
4.60403
4.9282
4.80756
4.6801
4.6146
4.58028
4.55622
4.52275
4.47814
4.42841
4.35321
4.25456
4.13987
4.00629
3.86891
3.72415
3.58279
3.44737
3.31427
3.18447
3.06521
2.96935
2.86954
2.78168
2.70038
2.62054
2.53687
2.44639
2.36122
2.31148
2.29651
2.32965
2.47403
2.79171
3.37313
4.24196
4.77673
4.79658
4.75703
4.7539
4.76706
4.78678
4.79514
4.7972
4.78374
4.77318
4.76349
4.73809
4.72145
4.69659
4.67174
4.65118
4.62406
4.60857
4.60772
4.61643
4.63853
4.68002
4.74888
4.86023
5.00027
5.09987
5.1326
5.14719
5.15717
5.1656
5.17392
5.18061
5.18589
5.19544
5.20925
5.2292
5.25482
5.28886
5.32618
5.36993
5.41417
5.44435
6.40392
6.08863
5.76054
5.44694
5.16862
4.9213
4.73708
4.57417
4.41475
4.26968
4.14366
4.01694
3.87191
3.72177
3.56027
3.39085
3.26885
3.23051
3.28513
3.55985
4.10363
4.85875
5.21745
5.07854
4.92138
4.81266
4.73711
4.67706
4.63428
4.59081
4.54768
4.49633
4.43365
4.35082
4.25336
4.13302
4.00746
3.8696
3.73756
3.60024
3.46609
3.33851
3.22342
3.10895
3.00041
2.90982
2.81418
2.7253
2.63532
2.55158
2.47251
2.39216
2.32774
2.30267
2.3339
2.43276
2.72416
3.26756
4.09109
4.67593
4.76059
4.71777
4.70223
4.70389
4.71934
4.7263
4.72633
4.72421
4.71103
4.69217
4.68067
4.65249
4.62216
4.60071
4.5828
4.56475
4.56135
4.56927
4.59388
4.64173
4.72323
4.8555
5.01597
5.11983
5.14863
5.15909
5.16681
5.17071
5.17198
5.17514
5.17452
5.1743
5.18046
5.19414
5.21291
5.23822
5.26565
5.29851
5.33475
5.36226
6.44412
6.16436
5.84792
5.52998
5.24832
4.98557
4.77953
4.61538
4.45278
4.30281
4.17895
4.05651
3.91917
3.77811
3.63105
3.51023
3.47249
3.52726
3.80669
4.36806
5.15912
5.55649
5.39088
5.1993
5.06522
4.96336
4.8656
4.78141
4.71395
4.6565
4.6054
4.55233
4.49511
4.42577
4.34251
4.24489
4.12973
4.0017
3.86714
3.72597
3.60322
3.47594
3.34538
3.22638
3.12267
3.0193
2.92032
2.82389
2.73409
2.6445
2.57004
2.48849
2.40402
2.33976
2.29898
2.31347
2.42054
2.66303
3.14458
3.90565
4.55573
4.72335
4.67801
4.64178
4.6395
4.64877
4.65894
4.66558
4.65423
4.64307
4.62815
4.6089
4.57886
4.54786
4.5334
4.51732
4.51323
4.52274
4.55092
4.60549
4.70338
4.86385
5.04663
5.1504
5.17392
5.18026
5.1859
5.17943
5.18031
5.17481
5.16671
5.16141
5.16665
5.17772
5.18804
5.20301
5.22144
5.24477
5.27346
5.29579
6.47419
6.21044
5.9171
5.6289
5.33683
5.05857
4.82012
4.65244
4.49142
4.34025
4.21678
4.10015
3.96414
3.84103
3.72789
3.69181
3.75325
4.04765
4.64795
5.50524
5.94128
5.74879
5.52335
5.36461
5.24476
5.12556
5.00749
4.8983
4.80593
4.73415
4.67309
4.61284
4.5519
4.48685
4.41226
4.32664
4.2255
4.11279
3.98342
3.85341
3.72354
3.58607
3.45626
3.334
3.21523
3.10916
3.01667
2.91954
2.82131
2.73068
2.64942
2.56984
2.49789
2.41959
2.34306
2.30642
2.31285
2.3855
2.59326
3.03611
3.74051
4.42925
4.67128
4.62104
4.57676
4.57396
4.5807
4.59209
4.59793
4.59295
4.57194
4.55332
4.52582
4.50322
4.4846
4.47441
4.46842
4.47669
4.50966
4.57625
4.69924
4.89307
5.09687
5.19442
5.21114
5.21492
5.21073
5.20298
5.19037
5.17503
5.16881
5.16996
5.17239
5.17349
5.17597
5.18259
5.19425
5.21134
5.23113
5.24727
6.52807
6.29916
5.96314
5.68296
5.40003
5.12339
4.86464
4.67382
4.52428
4.37131
4.25341
4.14409
4.02492
3.92845
3.90544
3.96166
4.26387
4.91376
5.85023
6.33417
6.13075
5.87919
5.6961
5.55529
5.41276
5.27395
5.13963
5.01146
4.90247
4.8138
4.74041
4.67384
4.60752
4.54
4.46853
4.38876
4.3007
4.19945
4.08917
3.96896
3.8358
3.70585
3.58207
3.45138
3.32779
3.21316
3.11243
3.01704
2.92385
2.83479
2.74544
2.66751
2.59257
2.51743
2.4361
2.36612
2.30432
2.30499
2.36752
2.55172
2.93377
3.56255
4.27333
4.59885
4.56816
4.52256
4.51337
4.5118
4.52095
4.52745
4.51768
4.5015
4.48043
4.44849
4.4259
4.42321
4.4242
4.43411
4.47066
4.55076
4.70757
4.94418
5.16362
5.24583
5.25696
5.2533
5.23217
5.21831
5.19974
5.1919
5.18458
5.18347
5.181
5.17548
5.17368
5.17715
5.18253
5.18976
5.20145
5.21324
6.08961
6.15144
5.93317
5.6652
5.40688
5.17018
4.92258
4.71461
4.56375
4.42127
4.29514
4.19552
4.11369
4.07888
4.16594
4.48143
5.16168
6.17629
6.72414
6.53336
6.27294
6.06244
5.89998
5.74287
5.58742
5.43163
5.28181
5.14597
5.02221
4.91289
4.82104
4.741
4.66787
4.59489
4.52025
4.44271
4.35865
4.26686
4.16598
4.05512
3.9393
3.81854
3.6937
3.56829
3.44595
3.32867
3.21813
3.11399
3.01411
2.91918
2.82965
2.74645
2.66526
2.58896
2.51172
2.42734
2.34792
2.2968
2.30337
2.35042
2.51264
2.83486
3.36919
4.10002
4.53128
4.54203
4.48976
4.45644
4.44676
4.45452
4.45944
4.44952
4.42902
4.4052
4.37827
4.36525
4.36895
4.38793
4.43778
4.54143
4.74329
5.02641
5.24995
5.3074
5.30472
5.28848
5.26436
5.24295
5.22548
5.21718
5.20613
5.19712
5.18548
5.18054
5.18012
5.18071
5.18191
5.18377
5.18878
5.19591
5.34669
6.13697
5.99225
5.73422
5.47475
5.24058
5.01525
4.80496
4.63883
4.48768
4.36315
4.27452
4.25408
4.33542
4.66608
5.39313
6.49533
7.1145
6.94715
6.69098
6.45395
6.26551
6.09353
5.9252
5.76017
5.59047
5.43023
5.28135
5.14372
5.019
4.90939
4.81463
4.7297
4.64962
4.56984
4.48993
4.40649
4.31904
4.22448
4.12481
4.01697
3.90453
3.78709
3.66783
3.54709
3.42705
3.31017
3.20058
3.09892
3.00349
2.91407
2.82965
2.74779
2.66832
2.59062
2.51518
2.43757
2.35423
2.30872
2.29517
2.32075
2.4419
2.72359
3.23668
3.96015
4.42317
4.47226
4.42633
4.38389
4.37172
4.37435
4.3802
4.37003
4.35559
4.33123
4.31421
4.31438
4.34046
4.40771
4.55184
4.8122
5.13623
5.33876
5.35974
5.34965
5.32334
5.29223
5.26816
5.25685
5.24018
5.23174
5.21833
5.20103
5.19074
5.18657
5.18196
5.18287
5.18468
5.18637
5.18865
4.20134
5.73331
6.06802
5.83823
5.60094
5.34479
5.11887
4.90854
4.73437
4.55501
4.45295
4.41547
4.50177
4.83107
5.5916
6.79706
7.51304
7.37584
7.12855
6.86399
6.65279
6.46892
6.29085
6.11432
5.92863
5.74883
5.58088
5.42417
5.27722
5.13859
5.01105
4.89812
4.79944
4.70901
4.62264
4.53794
4.45139
4.36332
4.27196
4.17679
4.07722
3.97353
3.86596
3.75443
3.6407
3.52447
3.40952
3.29856
3.19369
3.09492
3.00116
2.91216
2.82554
2.74321
2.66073
2.58705
2.5021
2.42348
2.35538
2.30037
2.25468
2.28714
2.40896
2.69438
3.14346
3.80254
4.28864
4.38153
4.34926
4.31136
4.29927
4.29431
4.30113
4.2894
4.2755
4.26862
4.2707
4.30655
4.39663
4.59986
4.9294
5.26966
5.41236
5.41268
5.40371
5.36977
5.32642
5.2973
5.28019
5.2623
5.25307
5.23503
5.21904
5.2096
5.20353
5.19612
5.19135
5.18932
5.18944
5.19027
2.91125
4.76436
5.90961
5.87256
5.68524
5.47524
5.24318
5.0104
4.78368
4.64989
4.58125
4.66739
5.00085
5.79294
7.07569
7.90972
7.80971
7.57263
7.28352
7.04216
6.8476
6.67049
6.48392
6.29058
6.093
5.90663
5.73426
5.57087
5.41389
5.26392
5.12251
4.99437
4.87995
4.77619
4.67929
4.58651
4.49471
4.4032
4.31095
4.21786
4.12253
4.02529
3.92448
3.82045
3.71291
3.60249
3.48979
3.37773
3.26978
3.16864
3.07308
2.98067
2.89266
2.80789
2.72623
2.6485
2.57181
2.50208
2.42805
2.34954
2.2874
2.25083
2.28655
2.36737
2.59558
3.02415
3.66936
4.17715
4.32033
4.28805
4.24327
4.21609
4.21384
4.21294
4.21303
4.21392
4.22723
4.27928
4.4121
4.69263
5.093
5.4095
5.47983
5.47899
5.4483
5.39862
5.35246
5.31898
5.30048
5.28895
5.27704
5.25851
5.23899
5.2241
5.21561
5.21122
5.20367
5.19731
5.19362
5.19343
1.99441
3.62285
5.31039
5.91972
5.78813
5.5564
5.33604
5.10361
4.87304
4.77978
4.82487
5.1573
5.99855
7.37463
8.30989
8.24558
8.01589
7.70556
7.43689
7.23431
7.05913
6.86972
6.67023
6.45957
6.2567
6.0673
5.88724
5.71465
5.54941
5.39122
5.23948
5.09721
4.96776
4.84998
4.7412
4.6388
4.53983
4.44352
4.34867
4.25488
4.16153
4.06709
3.97135
3.87277
3.77143
3.66727
3.56093
3.45464
3.35082
3.25133
3.1556
3.063
2.97331
2.88511
2.80248
2.71905
2.64585
2.56785
2.48742
2.40836
2.32869
2.26233
2.2274
2.22834
2.31142
2.53696
2.91885
3.49251
4.04213
4.23805
4.20487
4.16446
4.13807
4.12875
4.13495
4.14863
4.18912
4.27905
4.48572
4.85088
5.29077
5.52652
5.53869
5.52671
5.48007
5.42042
5.37251
5.34229
5.32531
5.31184
5.29338
5.28286
5.27535
5.25361
5.23267
5.22275
5.21549
5.20734
5.20198
5.20232
1.35497
2.51358
4.12848
5.42176
5.71922
5.54759
5.36044
5.1518
5.01812
5.0287
5.3408
6.22157
7.72238
8.79129
8.72869
8.46392
8.12001
7.83598
7.63529
7.45622
7.26676
7.06127
6.84374
6.6299
6.4274
6.23167
6.04309
5.86168
5.68767
5.5213
5.36105
5.20782
5.06407
4.93164
4.80926
4.69492
4.58705
4.48327
4.38398
4.28831
4.19425
4.10148
4.00714
3.91199
3.81463
3.71571
3.6151
3.51392
3.41382
3.31395
3.21541
3.11894
3.02605
2.93657
2.85089
2.76889
2.69054
2.61609
2.54312
2.47641
2.40567
2.32575
2.25108
2.20854
2.2103
2.27087
2.43629
2.78594
3.32753
3.8953
4.13222
4.13448
4.10177
4.06325
4.05077
4.06969
4.14104
4.30358
4.62638
5.08852
5.48086
5.59991
5.58755
5.55137
5.49345
5.43901
5.39911
5.37437
5.34748
5.32678
5.30818
5.30216
5.29127
5.27944
5.26167
5.24322
5.23029
5.22079
5.21231
5.21109
1.0549
1.58571
2.80273
4.45512
5.47115
5.56032
5.39629
5.25182
5.25729
5.56624
6.49946
8.13868
9.32688
9.24386
8.90862
8.50552
8.21074
8.02659
7.85569
7.66996
7.46022
7.2351
7.008
6.79225
6.58424
6.3815
6.18495
5.9968
5.81647
5.64342
5.47654
5.31559
5.1624
5.01865
4.8844
4.75856
4.63996
4.52766
4.42125
4.32113
4.22582
4.13143
4.03826
3.94436
3.84934
3.75363
3.65766
3.56188
3.46718
3.3724
3.2786
3.18557
3.09412
3.00603
2.92019
2.83811
2.75896
2.68185
2.60799
2.53218
2.46292
2.39114
2.315
2.23525
2.19008
2.18302
2.21825
2.37819
2.68684
3.12442
3.69959
4.02925
4.06585
4.0362
4.00591
4.01635
4.14609
4.42541
4.86423
5.36688
5.63021
5.6507
5.62019
5.5625
5.50084
5.45678
5.42232
5.39225
5.36871
5.35515
5.34787
5.32996
5.30974
5.29539
5.2823
5.2645
5.24574
5.2314
5.22054
5.21984
1.02207
1.06548
1.82609
3.39101
4.94603
5.63505
5.5373
5.44632
5.77367
6.80111
8.63365
9.94643
9.79662
9.35854
8.88821
8.58136
8.41158
8.2537
8.07314
7.86521
7.63617
7.40524
7.18369
6.96628
6.75139
6.54169
6.3384
6.14249
5.95441
5.77392
5.59926
5.43053
5.26823
5.11397
4.96854
4.83138
4.70198
4.58017
4.46507
4.35762
4.25679
4.16081
4.06608
3.97072
3.87611
3.78215
3.68968
3.59875
3.50675
3.4168
3.32414
3.23308
3.14173
3.05291
2.96714
2.88305
2.80469
2.72688
2.65507
2.58152
2.51198
2.44405
2.37273
2.30248
2.22496
2.1713
2.14647
2.17401
2.2807
2.54173
3.01569
3.57358
3.90844
3.95923
3.96419
3.99499
4.22017
4.66135
5.21606
5.58101
5.66997
5.65741