/*--------------------------------*- C++ -*----------------------------------*\
| =========                 |                                                 |
| \\      /  F ield         | OpenFOAM: The Open Source CFD Toolbox           |
|  \\    /   O peration     | Version:  v2106                                 |
|   \\  /    A nd           | Website:  www.openfoam.com                      |
|    \\/     M anipulation  |                                                 |
\*---------------------------------------------------------------------------*/
FoamFile
{
    version     2.0;
    format      ascii;
    arch        "LSB;label=32;scalar=64";
    class       surfaceScalarField;
    location    "3";
    object      phi;
}
// * * * * * * * * * * * * * * * * * * * * * * * * * * * * * * * * * * * * * //

dimensions      [1 0 -1 0 0 0 0];

oriented        oriented;

internalField   nonuniform List<scalar> 
10325
(
0.0084507
2.56929e-16
0.0084507
-3.33514e-15
0.0084507
1.3028e-15
0.0084507
5.14408e-15
0.0084507
-6.54907e-13
0.0084507
-4.42142e-12
0.0084507
-8.71349e-13
0.0084507
1.63883e-11
0.00845062
4.81023e-10
0.00845034
3.21913e-09
0.00844481
3.92125e-08
0.00841174
3.12493e-07
0.0080643
3.30646e-06
0.00707004
2.40012e-05
0.00624905
8.51978e-05
0.00743261
0.000894942
0.00703207
0.000448606
0.00641102
0.000614529
0.00566524
0.000682482
0.00495565
0.00072887
0.00413248
0.000827032
0.00320517
0.000936812
0.00220227
0.00101078
0.00114302
0.00106511
0.00114982
0.0084507
-3.04227e-16
0.0084507
1.32706e-16
0.0084507
1.32058e-14
0.0084507
-4.0872e-14
0.0084507
1.32627e-12
0.0084507
-9.35841e-12
0.0084507
-1.42968e-11
0.0084507
3.53359e-11
0.00845062
7.53085e-10
0.00845035
6.95217e-09
0.00844496
6.58345e-08
0.00841279
6.26912e-07
0.00807325
5.95075e-06
0.00708424
4.77084e-05
0.00625032
0.000179452
0.00737747
0.0017945
0.00706466
0.000859017
0.0064346
0.00124497
0.00567109
0.00138541
0.00490668
0.0015129
0.00404716
0.00168875
0.00313938
0.00185437
0.00216052
0.00199778
0.00109892
0.00213407
0.00225714
0.0084507
-9.60576e-16
0.0084507
-8.06077e-16
0.0084507
1.14153e-14
0.0084507
-5.15775e-14
0.0084507
1.36412e-12
0.0084507
-2.99357e-11
0.0084507
-1.60007e-11
0.0084507
-4.94357e-11
0.00845063
1.05945e-09
0.00845037
4.47756e-09
0.00844529
8.20535e-08
0.00841503
6.89943e-07
0.00809208
7.93231e-06
0.00711382
7.18153e-05
0.00626701
0.000272181
0.00731935
0.00267683
0.0069853
0.00137895
0.00638009
0.00185276
0.00564876
0.00206012
0.00493412
0.00226172
0.00412528
0.00250196
0.0032107
0.0027798
0.00219322
0.00302873
0.00111694
0.00322319
0.00338928
0.0084507
5.83247e-16
0.0084507
6.9683e-15
0.0084507
-9.06287e-15
0.0084507
4.40058e-13
0.0084507
9.61956e-13
0.0084507
1.48667e-11
0.0084507
2.15752e-10
0.0084507
-4.81637e-10
0.00845062
3.89657e-09
0.00845044
-9.37243e-09
0.00844542
4.44581e-08
0.00841876
9.24162e-07
0.00813792
-2.29329e-05
0.00719205
0.000100216
0.00632179
0.000358408
0.00723681
0.0035202
0.00695279
0.00201298
0.00638801
0.00242752
0.00572031
0.0026766
0.00502952
0.00298932
0.00418159
0.00335938
0.00322559
0.00374472
0.00222409
0.00404451
0.00114068
0.00432114
0.00454607
0.0084507
6.57704e-16
0.0084507
2.02098e-15
0.0084507
1.35688e-14
0.0084507
3.23155e-14
0.0084507
1.01392e-12
0.0084507
1.10848e-11
0.0084507
1.62541e-10
0.0084507
-6.25033e-11
0.00845065
3.70089e-09
0.00845025
3.34232e-09
0.00844652
7.30468e-08
0.00841568
1.55734e-06
0.00815917
-2.27963e-05
0.00723365
0.000121496
0.0063428
0.000433846
0.00696418
0.00438927
0.0069679
0.00259932
0.00639589
0.00301322
0.00575197
0.00327377
0.00504672
0.00372957
0.00424425
0.00417049
0.00334346
0.00465891
0.00233036
0.00507476
0.00121026
0.00545907
0.00577756
0.0084507
2.37793e-16
0.0084507
-2.60881e-15
0.0084507
1.19723e-14
0.0084507
-6.16205e-14
0.0084507
7.98792e-13
0.0084507
1.53577e-12
0.0084507
4.12254e-11
0.0084507
7.99572e-11
0.00845066
2.74351e-09
0.00845034
2.29126e-09
0.00844748
1.73774e-07
0.00842286
8.81686e-07
0.00819452
9.23856e-06
0.00729878
0.000127631
0.0063729
0.000500151
0.00671896
0.00518515
0.00692534
0.00329383
0.00635788
0.00358648
0.00572627
0.00385119
0.00506641
0.00442495
0.00434313
0.00490515
0.00343952
0.00557273
0.00244685
0.00608898
0.00128795
0.00664294
0.00709746
0.0084507
-6.70579e-17
0.0084507
3.33853e-16
0.0084507
-7.54063e-17
0.0084507
-2.18432e-14
0.0084507
7.21193e-13
0.0084507
1.31969e-12
0.0084507
4.65075e-11
0.0084507
1.36529e-10
0.00845067
2.87689e-09
0.0084504
1.13462e-08
0.00844812
1.8608e-07
0.00842935
-1.57971e-06
0.00826696
1.20695e-05
0.00746445
0.000121802
0.00653211
0.000494118
0.00653848
0.00580348
0.00687721
0.00432043
0.00627426
0.00417593
0.0056857
0.00438425
0.00508959
0.00504206
0.00446974
0.00554408
0.00365988
0.00640061
0.00265658
0.00712167
0.00147377
0.00786506
0.00861317
0.0084507
1.31243e-16
0.0084507
4.18502e-16
0.0084507
1.234e-14
0.0084507
1.12533e-13
0.0084507
-7.27985e-15
0.0084507
4.21675e-12
0.0084507
1.20817e-11
0.0084507
2.10093e-10
0.00845069
2.01796e-09
0.00845047
3.21887e-09
0.00844878
3.18336e-07
0.00843571
-5.6426e-06
0.00832233
1.22737e-05
0.00762454
0.000100427
0.00676888
0.000323763
0.00672262
0.00564265
0.00733842
0.0059187
0.00656525
0.00493396
0.00582617
0.0050758
0.00518565
0.00568609
0.00461426
0.0061257
0.00380123
0.00722516
0.00283865
0.00811521
0.00160428
0.00911762
0.0103166
0.0084507
7.02563e-17
0.0084507
2.38145e-16
0.0084507
5.25225e-15
0.0084507
8.43944e-14
0.0084507
-5.03221e-14
0.0084507
2.67034e-12
0.0084507
1.69923e-11
0.0084507
1.15642e-10
0.00845069
1.81014e-09
0.00845056
-4.32259e-09
0.00844956
2.24814e-07
0.00843751
-3.50724e-06
0.00835837
8.58385e-06
0.00776972
7.36931e-05
0.0068725
0.000180544
0.00716612
0.00455518
0.00804427
0.00757607
0.00703925
0.00591603
0.00622592
0.00584836
0.00557633
0.00637956
0.00494559
0.00677809
0.00430198
0.00789372
0.00347197
0.009024
0.00235349
0.0102907
0.0128148
0.0084507
1.42844e-17
0.0084507
-1.51436e-16
0.0084507
2.58365e-16
0.0084507
-4.97668e-15
0.0084507
-1.05211e-13
0.0084507
-5.35599e-13
0.0084507
2.83929e-11
0.0084507
2.26745e-11
0.00845069
1.51208e-09
0.0084506
5.17058e-09
0.00844993
5.02653e-08
0.00843937
4.67541e-07
0.00838078
5.80258e-06
0.00787416
5.93697e-05
0.0068273
0.000227408
0.00719086
0.00326451
0.00888713
0.00862514
0.00781914
0.00698937
0.00691377
0.00671774
0.00623757
0.00710207
0.00549972
0.00753301
0.00481862
0.00858042
0.00395857
0.00991035
0.00248338
0.0117932
0.0158301
0.0084507
-8.1261e-17
0.0084507
5.92516e-17
0.0084507
1.99097e-15
0.0084507
-1.27728e-14
0.0084507
8.37381e-14
0.0084507
8.01989e-13
0.0084507
1.39836e-12
0.0084507
9.33185e-11
0.0084507
4.28784e-10
0.0084506
6.83042e-09
0.00845025
4.6245e-08
0.00844339
4.74178e-07
0.00840448
4.01542e-06
0.00800337
4.79413e-05
0.00697294
0.000283697
0.00701347
0.00226569
0.00925543
0.00893321
0.00875094
0.00750409
0.00788427
0.00759747
0.00707224
0.00796728
0.00626973
0.00835309
0.00574231
0.0091756
0.00537136
0.0104627
0.00531541
0.0121404
0.0133655
0.00837209
0.0084507
-2.37034e-16
0.0084507
6.07668e-16
0.0084507
-1.36691e-16
0.0084507
2.7432e-14
0.0084507
-2.39145e-13
0.0084507
2.47147e-12
0.0084507
-1.22769e-11
0.0084507
1.16829e-10
0.0084507
-5.07178e-12
0.00845063
6.78461e-09
0.00845043
-3.62976e-09
0.00844561
4.52844e-07
0.00841964
1.9821e-06
0.0081289
2.84653e-05
0.0072012
0.000284113
0.00687663
0.00161696
0.00901996
0.00857177
0.00906247
0.00794344
0.00862854
0.00807818
0.00797941
0.00868392
0.00728095
0.00911305
0.00683941
0.00964734
0.00691422
0.0104109
0.00738494
0.011499
0.012009
0.0096375
0.0084507
-1.71792e-16
0.0084507
2.82895e-16
0.0084507
-2.20464e-15
0.0084507
2.14276e-14
0.0084507
-4.76484e-13
0.0084507
1.05011e-12
0.0084507
-3.35179e-12
0.0084507
5.4089e-11
0.0084507
4.24883e-10
0.00845067
4.21896e-09
0.0084503
1.63135e-08
0.00844741
5.01164e-07
0.00842884
-8.10927e-06
0.00824507
2.13095e-05
0.00744212
0.000235459
0.00688886
0.00116594
0.00826092
0.00819671
0.00907028
0.00836613
0.00894633
0.00827055
0.00859995
0.00899411
0.0082624
0.00947554
0.00803889
0.00987534
0.00820963
0.0103496
0.00872282
0.0109361
0.0109572
0.0104687
0.0084507
-6.53232e-18
0.0084507
-1.4512e-16
0.0084507
-4.50567e-16
0.0084507
6.39015e-15
0.0084507
2.6003e-14
0.0084507
3.32148e-13
0.0084507
-3.2658e-12
0.0084507
3.22872e-11
0.0084507
3.21417e-10
0.00845069
2.59487e-09
0.0084505
2.9304e-08
0.00844921
3.43335e-07
0.00843598
-8.57577e-06
0.00833941
1.77812e-05
0.00772582
0.000145893
0.00702723
0.000752909
0.00804468
0.00675897
0.00919743
0.00949872
0.00888685
0.00858144
0.00887743
0.00900278
0.00883315
0.00955534
0.00883738
0.00990399
0.00903716
0.0102538
0.0095062
0.0105328
0.010439
0.0105066
0.0084507
-6.69495e-18
0.0084507
-4.96022e-17
0.0084507
1.35059e-15
0.0084507
-6.88414e-16
0.0084507
5.76119e-14
0.0084507
7.03562e-14
0.0084507
7.11071e-13
0.0084507
4.15107e-11
0.0084507
-1.21014e-10
0.00845068
2.43077e-09
0.0084507
2.07362e-09
0.00844976
1.34076e-07
0.00843697
6.09612e-07
0.00837856
8.29736e-06
0.0079013
8.91499e-05
0.00709833
0.000476976
0.00796481
0.00482503
0.00985425
0.0104338
0.00940377
0.00905675
0.00928789
0.00909782
0.00932909
0.00953765
0.00946243
0.00987384
0.00970714
0.0101113
0.010112
0.0102446
0.00994397
0.0109679
0.0084507
-2.33917e-17
0.0084507
2.1947e-16
0.0084507
-1.06902e-16
0.0084507
6.45927e-15
0.0084507
2.95284e-14
0.0084507
3.07243e-13
0.0084507
5.1764e-12
0.0084507
-1.81461e-11
0.0084507
8.82136e-11
0.0084507
3.44641e-10
0.0084506
6.64226e-09
0.00845038
5.64814e-08
0.00844428
3.32345e-07
0.00841346
4.92656e-06
0.00808589
3.59603e-05
0.00718286
0.000410404
0.00768882
0.00312668
0.0103224
0.010352
0.0101161
0.00957894
0.00986521
0.00949941
0.00976149
0.00967446
0.00984235
0.00986679
0.0100587
0.00995
0.0104195
0.00997186
0.00948767
0.0111109
0.0084507
-3.02763e-17
0.0084507
1.08691e-16
0.0084507
-6.4716e-16
0.0084507
4.69988e-15
0.0084507
4.2111e-15
0.0084507
1.15035e-13
0.0084507
2.95644e-12
0.0084507
-2.42561e-11
0.0084507
1.33409e-10
0.0084507
5.59662e-11
0.00845066
7.38107e-09
0.00845033
3.90087e-08
0.00844727
3.12604e-07
0.00842276
3.91156e-06
0.00822479
1.60811e-05
0.00744388
0.000316163
0.00744599
0.00194326
0.0098837
0.00907785
0.0106452
0.0101492
0.0104588
0.00990625
0.0103029
0.00981889
0.0102664
0.00987708
0.0104228
0.0098095
0.0107393
0.00975777
0.00926213
0.0111726
0.0084507
-2.1413e-18
0.0084507
1.44741e-17
0.0084507
1.20726e-16
0.0084507
6.69034e-16
0.0084507
1.04599e-14
0.0084507
5.59493e-14
0.0084507
6.73947e-13
0.0084507
4.11949e-12
0.0084507
2.89374e-11
0.0084507
3.67477e-10
0.0084507
2.62925e-09
0.0084505
2.82405e-08
0.00844982
2.22494e-07
0.00843752
2.12894e-06
0.00835311
1.85379e-05
0.00781088
0.00016734
0.00732544
0.00117506
0.00884527
0.00697268
0.0106452
0.0107841
0.0105343
0.0100912
0.0104786
0.00977262
0.0105452
0.00977942
0.0107087
0.00969925
0.010975
0.009593
0.00913076
0.0112825
0.0084507
-7.31836e-19
0.0084507
3.46403e-17
0.0084507
2.55682e-16
0.0084507
-1.2387e-16
0.0084507
1.38533e-14
0.0084507
3.73947e-14
0.0084507
9.24188e-13
0.0084507
5.14876e-12
0.0084507
-6.83011e-12
0.0084507
2.26683e-10
0.0084507
5.43193e-10
0.00845058
1.36889e-08
0.00845022
8.08888e-08
0.00844299
9.01021e-07
0.00840284
8.28042e-06
0.00802533
7.20968e-05
0.00737076
0.000720096
0.00857968
0.00453608
0.0112342
0.0109555
0.0111575
0.0103617
0.0110598
0.0100959
0.0109854
0.00986277
0.0110504
0.00968056
0.0112241
0.00950389
0.00905741
0.0114358
0.0084507
5.14996e-19
0.0084507
1.22786e-17
0.0084507
8.87691e-17
0.0084507
3.78929e-17
0.0084507
5.31479e-15
0.0084507
2.00931e-14
0.0084507
3.51931e-13
0.0084507
2.2065e-12
0.0084507
2.60333e-12
0.0084507
1.1723e-10
0.0084507
5.93685e-10
0.00845065
6.90938e-09
0.00845027
5.97335e-08
0.00844694
4.37485e-07
0.0084199
5.16521e-06
0.00821401
3.13058e-05
0.00752218
0.000432608
0.00809412
0.00263596
0.0112195
0.00937192
0.0118563
0.0109837
0.0116938
0.0105671
0.0114868
0.010131
0.0113876
0.00980275
0.0114282
0.00951834
0.00903725
0.0115628
0.0084507
-8.40257e-19
0.0084507
6.28837e-18
0.0084507
3.77031e-17
0.0084507
2.50939e-16
0.0084507
8.51966e-16
0.0084507
1.66251e-14
0.0084507
8.90752e-14
0.0084507
1.05685e-12
0.0084507
1.13515e-11
0.0084507
1.33902e-11
0.0084507
6.04215e-10
0.0084507
2.33149e-09
0.00845046
3.67745e-08
0.00844976
2.56658e-07
0.00843625
2.25109e-06
0.00835145
2.33624e-05
0.00787316
0.000135181
0.00769126
0.00153195
0.00968296
0.00704749
0.0118383
0.0112959
0.0118043
0.0107323
0.0116997
0.0101895
0.0116389
0.00984694
0.0116545
0.00952425
0.00905345
0.0117203
0.0084507
-9.21572e-19
0.0084507
3.25261e-18
0.0084507
1.98951e-17
0.0084507
7.85233e-17
0.0084507
6.43826e-16
0.0084507
6.32022e-15
0.0084507
5.49461e-14
0.0084507
3.29918e-13
0.0084507
8.11595e-12
0.0084507
1.05002e-12
0.0084507
3.49265e-10
0.00845069
7.41774e-10
0.00845061
1.92025e-08
0.00844993
1.14634e-07
0.00844409
8.95806e-07
0.00840011
1.12569e-05
0.0080985
2.51515e-05
0.00754601
0.000881149
0.00894907
0.00435858
0.0121302
0.0106274
0.0122844
0.0110423
0.0122108
0.0105072
0.0120588
0.0100507
0.0119838
0.00962601
0.00913433
0.0119681
0.0084507
-8.13152e-20
0.0084507
6.23416e-19
0.0084507
3.36103e-18
0.0084507
4.41812e-17
0.0084507
8.24265e-17
0.0084507
3.29215e-15
0.0084507
1.49848e-14
0.0084507
1.38145e-13
0.0084507
1.46496e-12
0.0084507
1.45851e-11
0.0084507
8.85478e-11
0.0084507
1.3409e-09
0.00845071
4.88097e-09
0.00845025
7.61588e-08
0.00844944
5.10612e-07
0.0084265
4.29319e-06
0.00826815
4.43499e-05
0.00779514
0.000243576
0.00845704
0.00241314
0.011466
0.00855881
0.0128071
0.0114881
0.0126281
0.0109695
0.0124723
0.010269
0.0123351
0.00980604
0.00928552
0.0122366
0.0084507
-3.25261e-19
0.0084507
-6.77626e-19
0.0084507
-8.94467e-19
0.0084507
2.25785e-17
0.0084507
-9.52472e-17
0.0084507
1.32685e-15
0.0084507
2.14981e-15
0.0084507
-1.7706e-14
0.0084507
8.28153e-13
0.0084507
4.23007e-12
0.0084507
3.47962e-11
0.0084507
5.68051e-10
0.00845069
8.26002e-10
0.00845057
3.3486e-08
0.00844966
1.90129e-07
0.008442
1.21219e-06
0.00838927
1.85218e-05
0.00807398
8.38567e-06
0.00773968
0.00138211
0.0095892
0.00562294
0.0128406
0.0110771
0.0128232
0.0111604
0.0128037
0.010543
0.0126608
0.00999967
0.00945941
0.0125356
0.0084507
5.42101e-20
0.0084507
-6.50521e-19
0.0084507
5.04154e-18
0.0084507
3.03577e-18
0.0084507
1.18449e-16
0.0084507
8.38766e-16
0.0084507
8.62388e-15
0.0084507
1.52076e-13
0.0084507
1.28443e-13
0.0084507
5.72086e-12
0.0084507
1.97601e-11
0.0084507
3.30149e-10
0.0084507
2.41296e-09
0.00845073
8.17126e-09
0.00845001
1.18069e-07
0.00844937
7.71102e-07
0.00841769
5.66957e-06
0.00819519
6.22763e-05
0.00781956
0.00039583
0.0090441
0.00321726
0.0126004
0.00903243
0.0135283
0.0115271
0.0132398
0.0110714
0.0130791
0.0102246
0.00969372
0.0128921
0.0084507
2.43945e-19
0.0084507
-1.0842e-18
0.0084507
2.41235e-18
0.0084507
-1.40946e-18
0.0084507
2.59124e-17
0.0084507
4.56232e-16
0.0084507
1.97688e-15
0.0084507
1.10335e-13
0.0084507
1.27146e-14
0.0084507
2.77522e-12
0.0084507
5.17949e-12
0.0084507
1.24471e-10
0.0084507
1.23074e-09
0.00845068
1.90956e-09
0.00845054
4.75724e-08
0.00844944
2.74247e-07
0.00844001
9.49405e-07
0.00838048
2.45538e-05
0.00807094
2.16824e-05
0.00809508
0.00172183
0.0103598
0.00637648
0.0133582
0.0111644
0.0133351
0.0111804
0.0133243
0.0104912
0.00989799
0.013184
0.0084507
-3.79471e-19
0.0084507
-8.94467e-19
0.0084507
-7.04731e-19
0.0084507
2.71051e-18
0.0084507
3.3285e-17
0.0084507
8.26433e-17
0.0084507
9.59356e-16
0.0084507
1.04694e-14
0.0084507
1.11447e-13
0.0084507
4.19174e-13
0.0084507
6.93305e-12
0.0084507
2.58742e-11
0.0084507
4.25047e-10
0.0084507
3.08662e-09
0.00845074
1.07441e-08
0.00844986
1.40101e-07
0.00844948
9.82227e-07
0.00841596
4.90943e-06
0.00819088
7.60519e-05
0.00784491
0.000585566
0.00946243
0.00353467
0.0131414
0.00908215
0.0140971
0.0114932
0.0137544
0.0111039
0.0101382
0.0135775
0.0084507
-5.42101e-19
0.0084507
-9.75782e-19
0.0084507
-2.71051e-19
0.0084507
3.79471e-19
0.0084507
1.69136e-17
0.0084507
4.06576e-18
0.0084507
-1.44849e-16
0.0084507
4.60859e-15
0.0084507
4.33879e-14
0.0084507
1.06462e-13
0.0084507
2.5574e-12
0.0084507
5.2163e-13
0.0084507
1.65893e-10
0.0084507
1.49366e-09
0.00845068
2.77696e-09
0.00845053
3.10757e-08
0.00844947
2.82883e-07
0.00843995
-1.2676e-06
0.008389
2.60531e-05
0.00814569
7.2143e-05
0.00838188
0.00179874
0.010812
0.00640487
0.0139488
0.0109866
0.0139753
0.0112585
0.0105317
0.0138763
0.0084507
4.60786e-19
0.0084507
6.50521e-19
0.0084507
-3.52366e-19
0.0084507
-3.52366e-19
0.0084507
4.33681e-18
0.0084507
5.78422e-17
0.0084507
4.13677e-16
0.0084507
8.63079e-16
0.0084507
2.40243e-14
0.0084507
9.58957e-14
0.0084507
1.39102e-12
0.0084507
1.14255e-11
0.0084507
3.07848e-11
0.0084507
6.0141e-10
0.0084507
2.04856e-09
0.00845047
3.78173e-08
0.0084509
8.44414e-08
0.00844847
1.15454e-06
0.00842117
-4.1045e-06
0.00823774
8.31221e-05
0.00788342
0.000689622
0.00956255
0.0034935
0.0133478
0.00873352
0.01451
0.0114345
0.0110669
0.0141991
0.0084507
2.98156e-19
0.0084507
6.23416e-19
0.0084507
-2.71051e-20
0.0084507
-3.52366e-19
0.0084507
2.90024e-18
0.0084507
2.24159e-17
0.0084507
1.78378e-16
0.0084507
4.23164e-16
0.0084507
8.66868e-15
0.0084507
3.40831e-14
0.0084507
4.38915e-13
0.0084507
5.83531e-12
0.0084507
1.07836e-11
0.0084507
2.60715e-10
0.0084507
4.63872e-10
0.00845069
1.73271e-08
0.00845055
-2.10987e-08
0.00844967
4.77038e-07
0.00844086
-1.06325e-05
0.00840299
2.74422e-05
0.00823476
9.22824e-05
0.00849846
0.0017843
0.0109015
0.00595811
0.0142477
0.0105262
0.0111145
0.014538
0.0084507
2.1684e-19
0.0084507
1.6263e-19
0.0084507
5.69206e-19
0.0084507
2.71051e-20
0.0084507
-1.89735e-19
0.0084507
1.27936e-17
0.0084507
7.70597e-17
0.0084507
1.75966e-16
0.0084507
3.19601e-15
0.0084507
1.56212e-14
0.0084507
1.6809e-13
0.0084507
1.39886e-12
0.0084507
3.85726e-12
0.0084507
6.53508e-11
0.0084507
1.98515e-10
0.00845072
5.14531e-09
0.00845079
3.12214e-09
0.00845124
2.47191e-07
0.00844007
2.25646e-07
0.00841474
5.07266e-06
0.00828519
7.32175e-05
0.00790305
0.000765861
0.00945725
0.00309307
0.0131792
0.00790933
0.0110258
0.0148776
0.0084507
-8.13152e-20
0.0084507
-2.98156e-19
0.0084507
2.98156e-19
0.0084507
3.79471e-19
0.0084507
-1.32815e-18
0.0084507
4.66207e-18
0.0084507
3.59142e-17
0.0084507
7.28855e-17
0.0084507
1.01422e-15
0.0084507
5.34124e-15
0.0084507
-1.67455e-16
0.0084507
7.13915e-13
0.0084507
5.36489e-13
0.0084507
2.83296e-11
0.0084507
-2.93166e-11
0.0084507
3.21151e-09
0.00845069
-4.00942e-09
0.00845055
1.78609e-07
0.00844957
-1.8246e-07
0.00844217
-1.02416e-06
0.00841437
1.61248e-05
0.00828463
0.000212505
0.00907708
0.000545241
0.011277
0.00529758
0.00982917
0.0148079
0.0084507
-4.60786e-19
0.0084507
-9.21572e-19
0.0084507
-1.0571e-18
0.0084507
-1.16552e-18
0.0084507
-1.21973e-18
0.0084507
-3.00866e-18
0.0084507
4.39102e-18
0.0084507
3.00053e-17
0.0084507
3.13768e-16
0.0084507
1.81975e-15
0.0084507
-2.76629e-14
0.0084507
1.26526e-13
0.0084507
8.87559e-13
0.0084507
7.60386e-12
0.0084507
6.21319e-11
0.00845071
4.67444e-10
0.0084507
1.29659e-09
0.00845075
8.6956e-09
0.0084503
1.05803e-07
0.00844682
9.60684e-07
0.0084341
2.73241e-06
0.0083687
9.09646e-05
0.00827414
-0.000339032
0.00941537
0.00273803
0.00751944
0.0126002
0.0084507
-1.89735e-19
0.0084507
-2.1684e-19
0.0084507
-6.23416e-19
0.0084507
-7.86047e-19
0.0084507
-8.13152e-19
0.0084507
-1.92446e-18
0.0084507
2.52077e-18
0.0084507
1.01915e-17
0.0084507
1.19452e-16
0.0084507
4.98272e-16
0.0084507
4.66299e-15
0.0084507
5.95374e-14
0.0084507
4.63513e-13
0.0084507
1.80514e-12
0.0084507
2.82635e-11
0.0084507
1.59495e-10
0.0084507
5.10499e-10
0.0084507
4.65502e-09
0.00845049
4.41321e-08
0.00845046
2.18408e-07
0.00843476
2.95998e-06
0.00852241
1.98315e-05
0.00808633
8.80815e-05
0.00785215
0.000903621
0.00405572
0.0101113
0.0084507
-1.0842e-19
0.0084507
2.43945e-19
0.0084507
2.43945e-19
0.0084507
1.35525e-19
0.0084507
-2.71051e-20
0.0084507
6.23416e-19
0.0084507
2.87314e-18
0.0084507
3.68629e-18
0.0084507
2.81893e-17
0.0084507
2.47388e-16
0.0084507
1.25068e-15
0.0084507
2.08039e-14
0.0084507
1.16324e-13
0.0084507
4.08519e-13
0.0084507
4.7496e-12
0.0084507
3.49814e-11
0.0084507
2.35667e-10
0.0084507
1.38344e-09
0.00845071
1.56945e-08
0.00845046
1.0863e-07
0.00845092
1.02828e-06
0.00844157
7.79042e-06
0.00842182
1.8601e-05
0.0083346
0.000119208
0.00190345
0.0089952
0.0084507
4.60786e-19
0.0084507
1.0842e-19
0.0084507
3.25261e-19
0.0084507
6.77626e-19
0.0084507
6.23416e-19
0.0084507
8.40257e-19
0.0084507
2.1684e-18
0.0084507
3.52366e-19
0.0084507
1.61004e-17
0.0084507
6.40492e-17
0.0084507
2.08031e-16
0.0084507
6.07812e-15
0.0084507
2.55288e-14
0.0084507
2.61651e-13
0.0084507
1.75198e-12
0.0084507
8.21255e-12
0.0084507
6.35457e-11
0.0084507
3.65128e-10
0.0084507
3.40223e-09
0.00845073
2.51793e-08
0.00845069
1.70041e-07
0.00845353
1.60966e-06
0.00842672
1.08096e-05
0.00835261
7.96224e-05
0.000789694
0.00799521
0.0084507
2.43945e-19
0.0084507
7.58942e-19
0.0084507
1.46367e-18
0.0084507
2.11419e-18
0.0084507
2.1684e-18
0.0084507
2.22261e-18
0.0084507
2.1684e-18
0.0084507
1.21973e-18
0.0084507
5.82759e-18
0.0084507
6.47811e-18
0.0084507
2.19334e-16
0.0084507
1.72619e-15
0.0084507
1.14735e-14
0.0084507
7.88646e-15
0.0084507
8.87176e-13
0.0084507
-3.93966e-13
0.0084507
3.04131e-11
0.0084507
5.24485e-11
0.0084507
1.36904e-09
0.00845069
-3.54246e-10
0.00845059
5.89221e-08
0.00845111
-4.18788e-07
0.00844576
3.71587e-06
0.0084428
1.96277e-05
0.000142294
0.00843752
0.0084507
-2.71051e-20
0.0084507
3.52366e-19
0.0084507
8.13152e-19
0.0084507
1.5992e-18
0.0084507
2.19551e-18
0.0084507
2.54788e-18
0.0084507
2.03288e-18
0.0084507
2.22261e-18
0.0084507
1.57209e-18
0.0084507
8.97177e-18
0.0084507
5.88993e-17
0.0084507
3.34558e-16
0.0084507
2.03391e-15
0.0084507
2.53331e-14
0.0084507
8.66712e-14
0.0084507
1.08505e-12
0.0084507
5.46998e-12
0.0084507
5.8552e-11
0.0084507
4.08661e-10
0.0084507
-4.00231e-09
0.0084507
2.70587e-08
0.00845057
-6.64172e-07
0.00845107
1.10189e-06
0.00844302
7.45054e-06
5.67744e-05
0.00841922
0.0084507
3.25261e-19
0.0084507
4.06576e-19
0.0084507
-1.35525e-19
0.0084507
-6.23416e-19
0.0084507
-1.40946e-18
0.0084507
-1.30104e-18
0.0084507
-1.38236e-18
0.0084507
-1.5992e-18
0.0084507
-2.49366e-18
0.0084507
-1.89735e-18
0.0084507
1.92717e-17
0.0084507
3.87331e-17
0.0084507
-8.15049e-17
0.0084507
8.66378e-15
0.0084507
-1.13099e-14
0.0084507
1.87519e-13
0.0084507
-4.45794e-13
0.0084507
6.59034e-12
0.00845071
-1.29697e-11
0.00845071
-3.23213e-11
0.00845079
-9.79623e-09
0.0084501
-2.07702e-08
0.00844967
1.75355e-07
0.00845345
1.34229e-06
1.36207e-05
0.00844868
0.0084507
2.71051e-20
0.0084507
-1.0842e-19
0.0084507
-3.79471e-19
0.0084507
-7.04731e-19
0.0084507
-1.76183e-18
0.0084507
-1.87025e-18
0.0084507
-1.5992e-18
0.0084507
-1.95156e-18
0.0084507
-1.73472e-18
0.0084507
-2.1684e-18
0.0084507
3.68629e-18
0.0084507
1.58294e-17
0.0084507
1.0758e-16
0.0084507
1.3865e-15
0.0084507
5.63094e-15
0.0084507
3.20818e-14
0.0084507
1.47476e-14
0.0084507
2.2823e-13
0.0084507
-1.60926e-11
0.0084507
-1.68451e-10
0.0084507
-2.55973e-09
0.00845068
-2.09456e-08
0.00845062
2.11557e-08
0.00845024
1.38423e-07
3.91526e-06
0.0084549
0.0084507
-4.87891e-19
0.0084507
-6.77626e-19
0.0084507
-5.96311e-19
0.0084507
-1.35525e-19
0.0084507
-1.89735e-19
0.0084507
-1.35525e-19
0.0084507
-8.40257e-19
0.0084507
-9.48677e-19
0.0084507
-1.21973e-18
0.0084507
-1.0571e-18
0.0084507
1.89735e-19
0.0084507
5.69206e-18
0.0084507
7.83336e-18
0.0084507
2.94442e-16
0.0084507
9.6719e-16
0.0084507
6.91084e-15
0.0084507
-5.89595e-15
0.0084507
-5.81377e-14
0.0084507
-7.71694e-13
0.0084507
-1.50992e-11
0.0084507
-1.98822e-10
0.00845068
-6.51372e-10
0.00845065
1.55585e-08
0.00845073
1.02019e-07
7.03683e-07
0.00845007
0.0084507
3.79471e-19
0.0084507
4.33681e-19
0.0084507
4.06576e-19
0.0084507
7.31836e-19
0.0084507
7.04731e-19
0.0084507
8.94467e-19
0.0084507
-2.98156e-19
0.0084507
-6.23416e-19
0.0084507
-5.42101e-19
0.0084507
-5.96311e-19
0.0084507
-8.40257e-19
0.0084507
1.97867e-18
0.0084507
-1.8052e-17
0.0084507
1.67238e-17
0.0084507
2.13642e-16
0.0084507
6.52635e-16
0.0084507
-1.02845e-15
0.0084507
-1.25103e-13
0.0084507
-2.9336e-13
0.0084507
-1.4479e-11
0.0084507
3.9124e-11
0.0084507
-9.21822e-10
0.00845071
2.51553e-09
0.00845071
8.06628e-09
1.96619e-07
0.00845053
0.0084507
1.0842e-19
0.0084507
-1.6263e-19
0.0084507
-7.04731e-19
0.0084507
-9.48677e-19
0.0084507
-7.58942e-19
0.0084507
5.96311e-19
0.0084507
9.75782e-19
0.0084507
1.19262e-18
0.0084507
1.35525e-18
0.0084507
1.57209e-18
0.0084507
8.13152e-19
0.0084507
1.43657e-18
0.0084507
2.57498e-18
0.0084507
-2.04372e-17
0.0084507
8.65193e-17
0.0084507
7.43356e-16
0.0084507
1.80685e-15
0.0084507
8.72574e-15
0.0084507
1.40227e-13
0.0084507
-7.6107e-13
0.0084507
8.66493e-12
0.0084507
7.8984e-11
0.0084507
8.02306e-10
0.00845069
8.83819e-09
5.45328e-08
0.00845073
0.0084507
-4.06576e-19
0.0084507
-1.00289e-18
0.0084507
-1.00289e-18
0.0084507
-1.11131e-18
0.0084507
-1.21973e-18
0.0084507
-4.81482e-35
0.0084507
5.96311e-19
0.0084507
1.02999e-18
0.0084507
1.24683e-18
0.0084507
1.5992e-18
0.0084507
5.69206e-19
0.0084507
7.58942e-19
0.0084507
-8.13152e-19
0.0084507
-2.49366e-18
0.0084507
2.35814e-17
0.0084507
1.18991e-16
0.0084507
7.12592e-16
0.0084507
-9.79848e-16
0.0084507
-2.93502e-15
0.0084507
-3.10326e-13
0.0084507
2.99404e-12
0.0084507
1.88805e-11
0.0084507
1.3318e-10
0.0084507
2.22429e-09
1.03545e-08
0.00845073
0.0084507
-1.89735e-19
0.0084507
-2.43945e-19
0.0084507
-1.6263e-19
0.0084507
-3.79471e-19
0.0084507
-3.79471e-19
0.0084507
-1.97867e-18
0.0084507
-2.08709e-18
0.0084507
-2.33103e-18
0.0084507
-2.41235e-18
0.0084507
-2.6563e-18
0.0084507
-3.00866e-18
0.0084507
-3.06287e-18
0.0084507
-3.25261e-18
0.0084507
-3.44234e-18
0.0084507
5.42101e-19
0.0084507
-3.82181e-17
0.0084507
4.7957e-16
0.0084507
1.65398e-15
0.0084507
1.71044e-15
0.0084507
1.24326e-13
0.0084507
1.06666e-12
0.0084507
1.24858e-11
0.0084507
-2.36675e-11
0.0084507
6.69742e-10
-9.72811e-11
0.0084507
0.0084507
1.89735e-19
0.0084507
2.1684e-19
0.0084507
1.35525e-19
0.0084507
-1.0842e-19
0.0084507
2.71051e-19
0.0084507
-1.54499e-18
0.0084507
-2.11419e-18
0.0084507
-2.92735e-18
0.0084507
-3.25261e-18
0.0084507
-2.84603e-18
0.0084507
-2.76472e-18
0.0084507
-2.19551e-18
0.0084507
-2.05998e-18
0.0084507
-2.49366e-18
0.0084507
-1.16552e-18
0.0084507
-1.80791e-17
0.0084507
1.09098e-16
0.0084507
1.39781e-16
0.0084507
3.00305e-15
0.0084507
4.85908e-14
0.0084507
-1.99121e-13
0.0084507
3.16279e-12
0.0084507
-6.70389e-12
0.0084507
2.00989e-10
-5.89045e-10
0.00845068
0.0084507
1.89735e-19
0.0084507
5.96311e-19
0.0084507
5.42101e-19
0.0084507
5.14996e-19
0.0084507
7.31836e-19
0.0084507
5.14996e-19
0.0084507
-2.98156e-19
0.0084507
-1.38236e-18
0.0084507
-2.1684e-18
0.0084507
-2.43945e-18
0.0084507
-2.73761e-18
0.0084507
-2.24972e-18
0.0084507
-2.95445e-18
0.0084507
-2.90024e-18
0.0084507
-2.43945e-18
0.0084507
-1.35525e-19
0.0084507
7.10152e-18
0.0084507
2.18982e-16
0.0084507
1.02715e-15
0.0084507
7.66301e-15
0.0084507
5.93004e-14
0.0084507
8.05442e-13
0.0084507
2.15195e-12
0.0084507
3.39722e-11
1.8478e-10
0.00845068
0.0084507
7.52316e-36
0.0084507
2.43945e-19
0.0084507
1.89735e-19
0.0084507
1.0842e-19
0.0084507
5.42101e-20
0.0084507
4.87891e-19
0.0084507
4.06576e-19
0.0084507
3.25261e-19
0.0084507
2.98156e-19
0.0084507
-5.14996e-19
0.0084507
-7.58942e-19
0.0084507
-1.43657e-18
0.0084507
-2.30393e-18
0.0084507
-1.19262e-18
0.0084507
-7.86047e-19
0.0084507
1.51788e-18
0.0084507
8.32125e-18
0.0084507
2.52077e-17
0.0084507
2.45816e-16
0.0084507
2.03545e-15
0.0084507
1.8658e-15
0.0084507
1.25984e-13
0.0084507
-1.83463e-13
0.0084507
1.12257e-12
-2.58849e-11
0.00845068
0.0084507
-3.52366e-19
0.0084507
-7.58942e-19
0.0084507
-1.68051e-18
0.0084507
-1.97867e-18
0.0084507
-2.46656e-18
0.0084507
-2.49366e-18
0.0084507
-1.81604e-18
0.0084507
-2.1413e-18
0.0084507
-2.03288e-18
0.0084507
-1.68051e-18
0.0084507
-1.30104e-18
0.0084507
-1.0571e-18
0.0084507
-4.33681e-19
0.0084507
1.24683e-18
0.0084507
7.58942e-19
0.0084507
2.11419e-18
0.0084507
5.23128e-18
0.0084507
2.40693e-17
0.0084507
1.86076e-16
0.0084507
1.44977e-15
0.0084507
1.30763e-14
0.0084507
1.03435e-13
0.0084507
1.01252e-12
0.0084507
6.46483e-12
8.93025e-11
0.00845068
0.0084507
0.0084507
0.0084507
0.0084507
0.0084507
0.0084507
0.0084507
0.0084507
0.0084507
0.0084507
0.0084507
0.0084507
0.0084507
0.0084507
0.0084507
0.0084507
0.0084507
0.0084507
0.0084507
0.0084507
0.0084507
0.0084507
0.0084507
0.0084507
0.00845068
0.00255959
0.00448875
-0.000731972
0.00331955
-0.002269
0.00155898
-0.00238231
0.000139297
-0.00228927
-6.19352e-05
-0.00226102
-6.70353e-06
-0.00234079
0.000104145
-0.00239684
7.77856e-05
-0.00253733
0.000175152
-0.00283777
0.000362471
-0.00322977
0.000529873
-0.00371505
0.000451038
-0.00404376
0.000272513
-0.00425031
0.000166021
-0.00436385
0.000104369
-0.00442782
8.15709e-05
-0.0044714
7.39176e-05
-0.00445814
4.32396e-05
-0.00438928
-1.00726e-05
-0.00440083
-6.1423e-06
-0.00442645
1.12506e-05
-0.00444109
1.16589e-05
-0.00444041
-1.43334e-06
-0.00442325
-2.05215e-05
-0.00440499
-2.6388e-05
-0.00439425
-2.59906e-05
-0.00439105
-1.41261e-05
-0.0043936
-4.44597e-06
-0.00443903
6.19834e-06
-0.00447645
6.56294e-06
-0.0045071
2.11321e-06
-0.00452785
-2.64362e-06
-0.00453766
4.84908e-07
-0.00452825
-7.7182e-06
-0.00449713
-2.27819e-05
-0.00441771
-6.47476e-05
-0.00433174
-7.3118e-05
-0.00423197
-9.1371e-05
-0.0040851
-0.000132591
-0.00389403
-0.000153928
-0.00365604
-0.000191472
-0.00340139
-0.000215856
-0.00314516
-0.00022436
-0.00282073
-0.000277811
-0.00244726
-0.00032456
-0.00207286
-0.000327795
-0.00169604
-0.000332891
-0.00129442
-0.000345765
-0.000802868
-0.000417891
-0.000207616
-0.00052384
0.000374557
-0.00051338
0.000929345
-0.000484888
0.00146907
-0.00047464
0.00196953
-0.00044199
0.00243441
-0.000408395
0.00286209
-0.000381049
0.00324394
-0.00034016
0.00359995
-0.000310191
0.00393255
-0.000284812
0.0042303
-0.000253449
0.00449821
-0.000225543
0.00474149
-0.00019928
0.00496515
-0.000176541
0.00517071
-0.000155897
0.00535725
-0.000135845
0.00552716
-0.000117012
0.00567931
-0.000100522
0.0058146
-8.35619e-05
0.0059345
-6.88147e-05
0.00604054
-5.41709e-05
0.00613662
-4.11525e-05
0.00622446
-2.96295e-05
0.00630332
-1.71679e-05