/*--------------------------------*- C++ -*----------------------------------*\
| =========                 |                                                 |
| \\      /  F ield         | OpenFOAM: The Open Source CFD Toolbox           |
|  \\    /   O peration     | Version:  v2106                                 |
|   \\  /    A nd           | Website:  www.openfoam.com                      |
|    \\/     M anipulation  |                                                 |
\*---------------------------------------------------------------------------*/
FoamFile
{
    version     2.0;
    format      ascii;
    arch        "LSB;label=32;scalar=64";
    class       volScalarField;
    location    "3";
    object      T;
}
// * * * * * * * * * * * * * * * * * * * * * * * * * * * * * * * * * * * * * //

dimensions      [0 0 0 1 0 0 0];

internalField   nonuniform List<scalar> 
5250
(
1
1
1
1
1
1
1
1
1.00002
1.00019
1.00168
1.01565
1.12093
1.53552
2.81616
2.53771
2.50828
2.5143
2.55645
2.55806
2.56402
2.56674
2.56579
2.56266
2.54859
1
1
1
1
1
1
1
1
1.00002
1.00018
1.00164
1.01525
1.11832
1.52745
2.80251
2.55474
2.49918
2.50359
2.54584
2.54914
2.55728
2.56218
2.56191
2.55904
2.54484
1
1
1
1
1
1
1
1
1.00002
1.00017
1.00155
1.01442
1.11276
1.5102
2.77844
2.58867
2.48529
2.48818
2.53129
2.53368
2.54271
2.55129
2.55176
2.54911
2.53451
1
1
1
1
1
1
1
1
1.00002
1.00016
1.00145
1.01348
1.10624
1.48262
2.73866
2.63056
2.48124
2.47237
2.51277
2.51227
2.52045
2.53434
2.5385
2.53671
2.5226
1
1
1
1
1
1
1
1
1.00002
1.00016
1.00137
1.01226
1.09317
1.44668
2.68688
2.66002
2.48338
2.45575
2.4949
2.49557
2.50322
2.51503
2.52206
2.52116
2.5071
1
1
1
1
1
1
1
1
1.00001
1.00012
1.00109
1.00956
1.0768
1.40192
2.51596
2.69057
2.44824
2.42804
2.47407
2.47634
2.48408
2.49481
2.50225
2.50088
2.48616
1
1
1
1
1
1
1
1
1.00001
1.0001
1.0009
1.0078
1.06288
1.34364
2.19664
2.72385
2.368
2.37408
2.43501
2.45168
2.46158
2.47235
2.47832
2.4754
2.45821
1
1
1
1
1
1
1
1
1.00001
1.00007
1.00069
1.00578
1.04755
1.2829
1.95172
2.82077
2.26159
2.27037
2.34102
2.40777
2.43242
2.44936
2.45002
2.44795
2.41411
1
1
1
1
1
1
1
1
1.00001
1.00005
1.00043
1.00378
1.0352
1.22758
1.8321
2.99904
2.33186
2.2643
2.29141
2.33261
2.38048
2.41631
2.40925
2.41049
2.35015
1
1
1
1
1
1
1
1
1
1.00003
1.0003
1.00266
1.0268
1.18561
1.71587
3.07579
2.42244
2.2958
2.29941
2.29559
2.31649
2.3692
2.36701
2.36147
2.20276
1
1
1
1
1
1
1
1
1
1.00002
1.00023
1.0021
1.01946
1.14322
1.60517
3.00794
2.45653
2.37843
2.3362
2.28327
2.2843
2.30668
2.2919
2.23478
1.96788
1
1
1
1
1
1
1
1
1
1.00002
1.00017
1.00148
1.01367
1.10666
1.49298
2.83756
2.55314
2.38932
2.34643
2.29039
2.24652
2.23819
2.23331
2.19784
1.8533
1
1
1
1
1
1
1
1
1
1.00001
1.00013
1.00118
1.00996
1.07367
1.38366
2.60423
2.6154
2.37388
2.33127
2.3037
2.25636
2.21494
2.16742
2.14646
1.85789
1
1
1
1
1
1
1
1
1
1.00001
1.00006
1.00056
1.00485
1.04271
1.26562
1.96598
2.75081
2.29527
2.29434
2.29114
2.26036
2.21295
2.14529
2.09422
1.86476
1
1
1
1
1
1
1
1
1
1
1.00003
1.00027
1.00241
1.02752
1.19091
1.73183
2.89849
2.29611
2.26681
2.2713
2.25276
2.20528
2.13881
2.06182
1.8857
1
1
1
1
1
1
1
1
1
1
1.00002
1.00021
1.00186
1.01712
1.12873
1.55795
2.87038
2.3343
2.25543
2.2298
2.22259
2.18993
2.13652
2.06268
1.92482
1
1
1
1
1
1
1
1
1
1
1.00001
1.00013
1.00115
1.01024
1.07939
1.40731
2.68542
2.4885
2.21154
2.15208
2.16319
2.15964
2.13065
2.06774
1.96374
1
1
1
1
1
1
1
1
1
1
1.00001
1.00005
1.00049
1.00434
1.03825
1.25141
1.99353
2.73874
2.2372
2.14596
2.15035
2.14336
2.11744
2.06488
1.98137
1
1
1
1
1
1
1
1
1
1
1
1.00003
1.0003
1.00262
1.02329
1.1652
1.65623
2.80127
2.26285
2.1804
2.11743
2.11385
2.09533
2.05474
1.98788
1
1
1
1
1
1
1
1
1
1
1
1.00002
1.00016
1.00138
1.01193
1.09098
1.45054
2.70651
2.41806
2.15449
2.05772
2.05064
2.04613
2.02687
1.98094
1
1
1
1
1
1
1
1
1
1
1
1.00001
1.00006
1.00057
1.005
1.04354
1.27717
2.20498
2.66113
2.19249
2.07312
2.05027
2.03224
2.00861
1.97005
1
1
1
1
1
1
1
1
1
1
1
1
1.00004
1.00032
1.00263
1.02193
1.15144
1.64555
2.73534
2.26307
2.12382
2.03868
2.01455
1.99007
1.95652
1
1
1
1
1
1
1
1
1
1
1
1
1.00001
1.00011
1.00098
1.00846
1.07063
1.40781
2.58109
2.42987
2.12271
2.02353
1.99235
1.96722
1.93845
1
1
1
1
1
1
1
1
1
1
1
1
1.00001
1.00006
1.00048
1.00383
1.03096
1.19997
1.8729
2.71109
2.16574
2.08093
1.99072
1.9574
1.92471
1
1
1
1
1
1
1
1
1
1
1
1
1
1.00002
1.00015
1.00137
1.01166
1.09398
1.5098
2.6087
2.33975
2.07278
1.98863
1.95312
1.91804
1
1
1
1
1
1
1
1
1
1
1
1
1
1.00001
1.00008
1.00063
1.00491
1.03929
1.24526
2.11498
2.58898
2.11084
2.04359
1.96195
1.92239
1
1
1
1
1
1
1
1
1
1
1
1
1
1
1.00002
1.00016
1.00151
1.013
1.10197
1.56627
2.57214
2.28036
2.03684
1.95654
1.92186
1
1
1
1
1
1
1
1
1
1
1
1
1
1
1.00001
1.00009
1.0007
1.00528
1.04205
1.26158
2.18117
2.52758
2.07719
2.00435
1.92073
1
1
1
1
1
1
1
1
1
1
1
1
1
1
1.00001
1.00008
1.00008
1.00138
1.01331
1.10099
1.57113
2.53379
2.25842
1.99676
1.92464
1
1
1
1
1
1
1
1
1
1
1
1
1
1
1
1.00001
1.00008
1.00066
1.00499
1.04016
1.25261
2.09206
2.50523
2.07091
1.97476
1
1
1
1
1
1
1
1
1
1
1
1
1
1
1
0.999998
0.999981
0.999746
1.00072
1.01059
1.08817
1.50957
2.4873
2.28177
1.99361
1
1
1
1
1
1
1
1
1
1
1
1
1
1
1
1
1.00001
1.00007
1.00057
1.00444
1.03497
1.23677
2.04069
2.51989
2.10398
1
1
1
1
1
1
1
1
1
1
1
1
1
1
1
1
1
1.00002
1.00008
1.00089
1.00875
1.06972
1.35374
2.33659
2.23687
1
1
1
1
1
1
1
1
1
1
1
1
1
1
1
1
1
1.00001
1.00006
1.00054
1.00614
1.00482
1.07677
1.72636
2.52249
1
1
1
1
1
1
1
1
1
1
1
1
1
1
1
1
1
1
1.00001
1.00009
1.0008
1.00586
1.04391
1.2803
2.21738
1
1
1
1
1
1
1
1
1
1
1
1
1
1
1
1
1
1
1
1.00003
1.00023
1.00155
1.00907
1.07973
1.52502
1
1
1
1
1
1
1
1
1
1
1
1
1
1
1
1
1
1
1
1.00001
1.00008
1.00058
1.0038
1.02931
1.1984
1
1
1
1
1
1
1
1
1
1
1
1
1
1
1
1
1
1
1
1
1.00002
1.00012
1.00088
1.00615
1.05092
1
1
1
1
1
1
1
1
1
1
1
1
1
1
1
1
1
1
1
0.999998
0.999977
1
1.00021
1.00175
1.01144
1
1
1
1
1
1
1
1
1
1
1
1
1
1
1
1
1
1
1
1
1
1.00001
1.00007
1.00047
1.00329
1
1
1
1
1
1
1
1
1
1
1
1
1
1
1
1
1
1
1
1
0.999999
1
1.00001
1.0001
1.00067
1
1
1
1
1
1
1
1
1
1
1
1
1
1
1
1
1
1
1
1
1
1
1
1.00003
1.00019
1
1
1
1
1
1
1
1
1
1
1
1
1
1
1
1
1
1
1
1
1
1
1
1.00001
1.00008
1
1
1
1
1
1
1
1
1
1
1
1
1
1
1
1
1
1
1
1
1
1
1
1
1.00002
1
1
1
1
1
1
1
1
1
1
1
1
1
1
1
1
1
1
1
1
1
1
1
1
1.00001
1
1
1
1
1
1
1
1
1
1
1
1
1
1
1
1
1
1
1
1
1
1
1
1
1.00001
1
1
1
1
1
1
1
1
1
1
1
1
1
1
1
1
1
1
1
1
1
1
1
1
1.00001
1
1
1
1
1
1
1
1
1
1
1
1
1
1
1
1
1
1
1
1
1
1
1
1
1.00001
1
1
1
1
1
1
1
1
1
1
1
1
1
1
1
1
1
1
1
1
1
1
1
1
1.00001
1
1
1
1
1
1
1
1
1
1
1
1
1
1
1
1
1
1
1
1
1
1
1
1
1.00001
2.23427
2.34628
2.04807
2.04821
2.04147
2.0799
2.08948
2.11463
2.13235
2.16242
2.19468
2.22411
2.08238
1.99993
1.95451
1.9393
1.93959
1.95229
1.96265
1.96626
1.9306
1.91635
1.91259
1.91579
1.91854
1.92
1.91913
1.9219
1.92505
1.92044
1.93048
1.94526
1.96904
2.00444
2.0446
2.08788
2.12801
2.16399
2.19777
2.23677
2.28247
2.32363
2.35557
2.38221
2.41927
2.44735
2.46848
2.48423
2.49794
2.50174
2.49475
2.47515
2.4533
2.43027
2.40616
2.38629
2.36809
2.34799
2.32549
2.30308
2.28299
2.26382
2.24485
2.22571
2.20753
2.18909
2.17308
2.15748
2.14317
2.12984
2.11683
2.10397
2.0911
2.07897
2.06774
2.05772
2.04837
2.03821
2.03158
2.02664
2.02316
2.02303
2.023
2.02179
2.01911
2.01583
2.01476
2.01394
2.01336
2.01339
2.01375
2.01453
2.01501
2.01507
2.01449
2.01336
2.01093
2.00709
2.00186
1.99091
2.24886
2.40878
2.29697
2.34433
2.18358
2.11654
2.15604
2.17155
2.18575
2.26533
2.33799
2.39261
2.35125
2.29325
2.27584
2.26686
2.2924
2.31895
2.34515
2.36877
2.32288
2.29146
2.27723
2.27673
2.27813
2.27987
2.28314
2.29706
2.30647
2.30717
2.32207
2.33915
2.36223
2.3948
2.44208
2.48663
2.52731
2.55945
2.58412
2.62186
2.65856
2.69963
2.72725
2.74645
2.75829
2.77024
2.78468
2.77636
2.75939
2.72936
2.6898
2.64761
2.61045
2.57933
2.54542
2.51392
2.49385
2.47375
2.45212
2.42861
2.40807
2.38927
2.37103
2.35273
2.33486
2.31709
2.29869
2.27992
2.26113
2.24444
2.22915
2.2142
2.19901
2.18484
2.17115
2.15883
2.14648
2.13338
2.12215
2.11351
2.10492
2.09754
2.08955
2.07969
2.0669
2.05274
2.03902
2.02499
2.01049
1.99557
1.98011
1.96545
1.95122
1.93945
1.92769
1.9191
1.91183
1.90492
1.89934
1.89169
1.99206
2.14993
2.25734
2.3597
2.32652
2.26184
2.21553
2.17247
2.27396
2.39757
2.56915
2.68814
2.5923
2.5191
2.49292
2.48952
2.4944
2.50699
2.5345
2.54638
2.51838
2.4987
2.489
2.48997
2.48944
2.49082
2.49352
2.50477
2.51734
2.52324
2.52899
2.55642
2.57645
2.5964
2.63733
2.67202
2.71366
2.73779
2.75404
2.75961
2.82278
2.83842
2.84488
2.86724
2.85914
2.84046
2.81793
2.79485
2.76578
2.72522
2.6776
2.62298
2.56155
2.51151
2.47473
2.4313
2.40101
2.37968
2.35859
2.33622
2.32065
2.30821
2.29836
2.28955
2.2811
2.27313
2.26457
2.25539
2.24538
2.23446
2.22228
2.20876
2.19508
2.18283
2.17005
2.15969
2.14987
2.13867
2.13097
2.12584
2.12041
2.11592
2.11101
2.10428
2.09439
2.08334
2.07205
2.06087
2.04945
2.03776
2.02584
2.01391
2.00114
1.98807
1.97493
1.96127
1.94706
1.93198
1.91606
1.89193
1.88981
1.96145
2.07608
2.25091
2.29593
2.3123
2.2971
2.25544
2.2418
2.27529
2.38428
2.57602
2.57454
2.56688
2.55909
2.53672
2.51167
2.51196
2.53598
2.55772
2.56089
2.53163
2.50664
2.51996
2.5268
2.53015
2.5317
2.53486
2.55098
2.55807
2.57662
2.6092
2.64336
2.67027
2.71135
2.77509
2.7877
2.79345
2.8018
2.78232
2.76752
2.7253
2.68027
2.65538
2.62923
2.6029
2.57579
2.55038
2.52291
2.48959
2.44908
2.40657
2.3609
2.32737
2.2985
2.26629
2.24508
2.22744
2.21049
2.19051
2.17547
2.16545
2.15831
2.15041
2.14423
2.14004
2.13536
2.13006
2.12426
2.12013
2.11589
2.1109
2.10597
2.10074
2.09509
2.0892
2.08252
2.07468
2.06927
2.06543
2.06399
2.06415
2.06461
2.06367
2.06019
2.0554
2.04976
2.04401
2.03784
2.03096
2.02378
2.01656
2.00919
2.00093
1.99237
1.98432
1.97585
1.96626
1.95502
1.93542
1.80551
1.83509
1.90689
2.05209
2.17949
2.23712
2.27206
2.27181
2.25746
2.22113
2.17322
2.24063
2.33179
2.40934
2.469
2.47149
2.48206
2.48077
2.47761
2.49054
2.53796
2.61359
2.61711
2.59311
2.56117
2.50519
2.46735
2.48138
2.50604
2.54024
2.59807
2.63378
2.66963
2.72393
2.71766
2.69416
2.64709
2.59232
2.53012
2.45969
2.46351
2.4525
2.4239
2.3961
2.3708
2.35832
2.34613
2.33134
2.31495
2.29689
2.27369
2.25036
2.22636
2.1997
2.1781
2.15841
2.13724
2.1234
2.11021
2.09466
2.0831
2.07444
2.06831
2.0626
2.05865
2.05604
2.0529
2.05068
2.04765
2.04409
2.04084
2.03823
2.03766
2.03696
2.03561
2.03428
2.0323
2.02971
2.02704
2.0248
2.0248
2.02555
2.02699
2.02852
2.0266
2.02416
2.02147
2.01856
2.01617
2.01329
2.00985
2.00551
2.00079
1.99562
1.98924
1.98242
1.97689
1.97136
1.96546
1.95567
1.81031
1.78241
1.81531
1.88927
1.98658
2.08504
2.17047
2.22738
2.23185
2.20184
2.10096
2.06845
2.0907
2.14007
2.21472
2.25733
2.30455
2.34228
2.36308
2.36
2.37331
2.43376
2.51688
2.55352
2.58743
2.60176
2.59908
2.5902
2.57765
2.59304
2.61618
2.62961
2.61253
2.57972
2.52955
2.47147
2.41049
2.35695
2.29675
2.24579
2.24899
2.23323
2.1953
2.17432
2.15901
2.15671
2.16351
2.16521
2.1599
2.15181
2.14119
2.12831
2.11396
2.09658
2.08082
2.06905
2.05292
2.04073
2.03248
2.02353
2.01149
2.00548
1.99988
1.99482
1.99254
1.99093
1.98815
1.9874
1.98775
1.9877
1.98651
1.98334
1.98113
1.98255
1.98347
1.98435
1.98493
1.98583
1.98743
1.98959
1.99231
1.9956
1.99947
2.00374
2.00292
2.00257
2.00198
2.00112
1.99997
1.99853
1.99628
1.99403
1.99093
1.9878
1.98352
1.97867
1.97365
1.96924
1.96594
1.96046
1.83291
1.78753
1.7718
1.79359
1.83823
1.90003
1.98555
2.08113
2.14326
2.14498
2.08111
2.02093
2.04037
2.05923
2.09115
2.1184
2.1406
2.16604
2.18976
2.16971
2.17405
2.20607
2.26104
2.32298
2.39647
2.45193
2.51007
2.53866
2.57192
2.5746
2.55423
2.51423
2.44044
2.33898
2.25507
2.19673
2.13293
2.10346
2.05681
2.04382
2.04753
2.03878
2.02574
2.02138
2.02352
2.02954
2.03539
2.04406
2.0509
2.04666
2.04059
2.03398
2.02667
2.01847
2.00729
2
1.99236
1.98315
1.97761
1.97203
1.96467
1.95629
1.95321
1.95065
1.94712
1.94605
1.94572
1.94504
1.94405
1.94463
1.94455
1.94405
1.94229
1.94207
1.94383
1.94542
1.94726
1.94997
1.95388
1.95892
1.96486
1.97125
1.978
1.98539
1.98626
1.98765
1.98922
1.98965
1.98999
1.98926
1.98851
1.98681
1.98474
1.98208
1.97918
1.97548
1.9706
1.96773
1.96563
1.96174
1.87236
1.80274
1.77137
1.77582
1.7876
1.80666
1.84232
1.896
1.96927
2.0325
2.00667
1.96426
1.97416
1.99334
2.01088
2.02988
2.05033
2.07633
2.09488
2.07976
2.06938
2.08081
2.10118
2.12655
2.16228
2.21213
2.29116
2.33342
2.40012
2.38039
2.34617
2.28752
2.20307
2.11265
2.03558
1.97532
1.91528
1.89051
1.85079
1.84774
1.84829
1.85049
1.8626
1.89284
1.93553
1.9705
1.96269
1.96307
1.96636
1.97197
1.97186
1.96953
1.96654
1.9622
1.95801
1.95215
1.94886
1.94442
1.94091
1.93846
1.93553
1.92976
1.92314
1.92376
1.92198
1.91755
1.91679
1.91647
1.91657
1.91684
1.91585
1.91621
1.91546
1.91451
1.91609
1.91828
1.92082
1.92424
1.92879
1.93481
1.94239
1.95102
1.96073
1.9709
1.97304
1.97593
1.97898
1.98167
1.98367
1.9849
1.98406
1.98333
1.98186
1.97867
1.97676
1.97429
1.97044
1.96619
1.96513
1.96324
1.90925
1.83417
1.78031
1.77708
1.7711
1.77451
1.78321
1.80002
1.82895
1.87532
1.88395
1.87617
1.87776
1.9006
1.9219
1.94493
1.96096
1.9832
2.00686
2.00538
1.974
1.97912
1.9986
2.02049
2.05044
2.08882
2.1418
2.18722
2.28152
2.249
2.20992
2.13857
2.02833
1.94199
1.88359
1.82989
1.77921
1.74791
1.71078
1.69823
1.6881
1.68864
1.7016
1.72678
1.76873
1.83285
1.94197
1.93259
1.90447
1.91023
1.92141
1.92496
1.9247
1.92521
1.92448
1.92409
1.92181
1.92184
1.92101
1.92007
1.91893
1.91698
1.9103
1.90805
1.90722
1.90485
1.90108
1.90036
1.89952
1.89859
1.89793
1.89863
1.89833
1.8971
1.89807
1.90018
1.90289
1.90653
1.91133
1.91772
1.926
1.93571
1.9477
1.95795
1.96135
1.96567
1.97023
1.97486
1.97801
1.98112
1.98142
1.98075
1.98018
1.97806
1.97553
1.97282
1.97026
1.96643
1.96392
1.96342
1.92141
1.8681
1.80855
1.78809
1.77426
1.76784
1.75783
1.75577
1.76056
1.77315
1.77878
1.76856
1.76325
1.77807
1.8043
1.83366
1.86081
1.8831
1.90875
1.92049
1.90183
1.89877
1.91862
1.94173
1.97259
2.01938
2.10667
2.25843
2.23397
2.18776
2.12466
2.02576
1.9072
1.82814
1.76669
1.72017
1.68885
1.6572
1.6224
1.60119
1.58429
1.58353
1.58751
1.60038
1.62867
1.67889
1.7592
1.91795
1.93541
1.88208
1.88554
1.89163
1.90261
1.90486
1.90603
1.90875
1.90886
1.9086
1.91049
1.91069
1.91048
1.90946
1.90746
1.90115
1.89952
1.89709
1.89337
1.89076
1.88944
1.88727
1.88643
1.88634
1.88594
1.88596
1.88597
1.88808
1.89044
1.8944
1.89937
1.9057
1.9139
1.92382
1.93728
1.94654
1.9506
1.95584
1.96131
1.96686
1.97188
1.97519
1.97783
1.9784
1.97742
1.97663
1.97481
1.97104
1.96881
1.9659
1.9616
1.96164
1.9199
1.87657
1.84074
1.80948
1.78942
1.77094
1.75932
1.74679
1.73242
1.72956
1.7256
1.7021
1.67556
1.67144
1.68169
1.69796
1.72456
1.75822
1.78334
1.81126
1.8107
1.80409
1.82085
1.84946
1.89192
1.97328
2.11566
2.27919
2.19709
2.13675
2.04891
1.92984
1.83131
1.75955
1.70929
1.66314
1.61959
1.58258
1.5595
1.54483
1.53564
1.52777
1.51873
1.52191
1.53592
1.56556
1.6188
1.71533
1.89527
1.96773
1.88804
1.8772
1.88009
1.89319
1.90027
1.90042
1.90211
1.90114
1.90211
1.90465
1.90543
1.9048
1.90247
1.89988
1.89461
1.89166
1.88858
1.88536
1.88019
1.87787
1.87866
1.87804
1.87553
1.87668
1.8769
1.87806
1.87993
1.88357
1.88893
1.89575
1.90423
1.91443
1.92943
1.93633
1.94073
1.94635
1.95188
1.95722
1.96266
1.96704
1.97058
1.97339
1.97313
1.97234
1.97122
1.96882
1.96503
1.96171
1.95728
1.95638
1.91494
1.87425
1.8454
1.82314
1.80759
1.78417
1.76725
1.74917
1.73219
1.72235
1.70818
1.6779
1.64988
1.63175
1.61044
1.61228
1.62215
1.64423
1.65732
1.67332
1.68951
1.69842
1.72016
1.74839
1.80774
1.92876
2.2021
2.17904
2.10446
2.02646
1.93822
1.83485
1.7733
1.71186
1.66246
1.62051
1.58637
1.55313
1.53274
1.51204
1.50347
1.49632
1.48735
1.48638
1.49214
1.50579
1.53409
1.58706
1.68042
1.84781
1.99249
1.90388
1.87305
1.87467
1.88469
1.89659
1.89679
1.89624
1.89496
1.89583
1.89774
1.89807
1.89708
1.89392
1.89053
1.88581
1.88036
1.8776
1.87469
1.87171
1.86933
1.86613
1.86482
1.86576
1.86781
1.86941
1.87134
1.87444
1.87939
1.88638
1.89535
1.90622
1.92237
1.92635
1.93024
1.93521
1.94013
1.9451
1.95004
1.95483
1.95936
1.96259
1.9637
1.9641
1.9631
1.96141
1.95906
1.95521
1.95094
1.94904
1.90453
1.86981
1.84209
1.82802
1.81408
1.79811
1.78039
1.75988
1.73996
1.72568
1.70804
1.67861
1.65063
1.62051
1.5935
1.57367
1.5758
1.58257
1.59107
1.59634
1.59306
1.60553
1.62597
1.66548
1.75098
1.90408
2.12156
2.00121
1.96277
1.90907
1.85127
1.78318
1.73768
1.69294
1.6522
1.61432
1.58056
1.55008
1.52894
1.50778
1.49083
1.47178
1.46822
1.47426
1.48429
1.48705
1.49457
1.51398
1.55909
1.65245
1.81163
2.00316
1.91659
1.87198
1.87199
1.87957
1.88936
1.88906
1.88811
1.88598
1.88627
1.8872
1.88705
1.88535
1.88161
1.87665
1.87213
1.86912
1.86563
1.86137
1.85559
1.85309
1.85406
1.85403
1.85412
1.85622
1.85927
1.86308
1.86815
1.87504
1.88419
1.89594
1.91326
1.91526
1.91754
1.92104
1.92496
1.9294
1.93384
1.93841
1.94242
1.94605
1.94877
1.95126
1.95114
1.95156
1.94964
1.9475
1.9443
1.94061
1.89183
1.86326
1.83601
1.82526
1.8138
1.80095
1.78766
1.772
1.75373
1.73607
1.71577
1.68744
1.65742
1.62253
1.59648
1.57093
1.56111
1.55139
1.55388
1.54581
1.5561
1.57119
1.59972
1.66636
1.79055
2.02786
1.98518
1.91235
1.88035
1.84394
1.80813
1.76262
1.72635
1.68971
1.65293
1.62176
1.59126
1.56501
1.5441
1.52298
1.502
1.49904
1.49523
1.48706
1.47461
1.47542
1.48138
1.4862
1.50214
1.54479
1.63103
1.77798
1.99397
1.9109
1.85945
1.85846
1.86314
1.87218
1.87195
1.87138
1.87033
1.8698
1.86991
1.86985
1.86863
1.86399
1.8599
1.85635
1.85395
1.85027
1.84312
1.84173
1.84031
1.84027
1.8412
1.84239
1.84483
1.84855
1.85467
1.86288
1.87285
1.88547
1.90288
1.90276
1.90348
1.90579
1.9088
1.91257
1.91599
1.9198
1.92312
1.92663
1.93006
1.93348
1.9362
1.9393
1.9386
1.93699
1.93466
1.93075
1.88077
1.85615
1.82948
1.81924
1.80953
1.80013
1.7878
1.77648
1.76135
1.74582
1.7276
1.70286
1.67374
1.63562
1.60378
1.57565
1.55971
1.54554
1.52641
1.53484
1.55386
1.58055
1.63691
1.73974
1.94886
1.92492
1.86138
1.84955
1.83283
1.81528
1.79142
1.75836
1.73036
1.69703
1.66612
1.63997
1.6151
1.59499
1.57443
1.55393
1.54346
1.53196
1.51861
1.50376
1.49146
1.47328
1.47393
1.48111
1.48488
1.49384
1.52378
1.60021
1.74168
1.9745
1.902
1.83696
1.83807
1.84169
1.85097
1.85377
1.85282
1.85243
1.85281
1.85274
1.85137
1.8496
1.84695
1.84249
1.84004
1.83729
1.83204
1.82943
1.82696
1.82466
1.82667
1.82908
1.83111
1.83419
1.83978
1.84848
1.85972
1.87476
1.89192
1.88927
1.88878
1.89007
1.89228
1.89534
1.89806
1.90079
1.90338
1.90648
1.90996
1.91376
1.9178
1.92158
1.92522
1.9246
1.9223
1.91848
1.87835
1.85075
1.82131
1.81138
1.80162
1.7959
1.78525
1.77617
1.76432
1.75025
1.73501
1.71687
1.69215
1.65877
1.62432
1.58925
1.56315
1.53208
1.53592
1.5521
1.57344
1.62255
1.72161
1.90963
1.89034
1.83138
1.82311
1.8166
1.81381
1.80616
1.78782
1.76565
1.74459
1.71734
1.69266
1.66761
1.64611
1.62399
1.60232
1.58699
1.57154
1.55506
1.53883
1.52302
1.51612
1.50584
1.49084
1.4703
1.46984
1.4736
1.47894
1.50492
1.5751
1.70604
1.9515
1.91178
1.83221
1.82776
1.83027
1.83581
1.84142
1.84074
1.84086
1.84041
1.83907
1.83807
1.83615
1.8323
1.82921
1.82589
1.82051
1.81666
1.81524
1.81285
1.8133
1.81602
1.81839
1.8223
1.82801
1.83634
1.84795
1.86701
1.88285
1.87838
1.87623
1.87735
1.87887
1.88045
1.88205
1.88399
1.88594
1.88814
1.89077
1.89408
1.89823
1.90287
1.90645
1.90986
1.90805
1.90314
1.8819
1.85089
1.81927
1.80237
1.79588
1.78954
1.78029
1.7722
1.76234
1.74992
1.73623
1.72013
1.69854
1.67532
1.64802
1.61478
1.57674
1.5537
1.56596
1.58137
1.62385
1.71562
1.89664
1.89081
1.84823
1.80539
1.80754
1.81166
1.8091
1.80227
1.78774
1.77473
1.75838
1.73807
1.71722
1.69628
1.67455
1.65206
1.63486
1.61597
1.59708
1.57456
1.56228
1.55087
1.53541
1.52024
1.50395
1.48626
1.46175
1.45705
1.46501
1.46982
1.49234
1.55733
1.67864
1.91617
1.91428
1.83445
1.8187
1.82085
1.82366
1.83056
1.83008
1.82894
1.82765
1.82639
1.82369
1.82143
1.81895
1.81441
1.81056
1.80653
1.80087
1.79942
1.80019
1.80237
1.80476
1.80891
1.81558
1.82532
1.83861
1.86193
1.87403
1.86787
1.86574
1.86637
1.86709
1.86802
1.86907
1.86989
1.87052
1.87164
1.87377
1.87669
1.87998
1.8838
1.88757
1.89281
1.89222
1.88706
1.88681
1.85233
1.82287
1.79463
1.7895
1.78387
1.7738
1.76588
1.75763
1.74837
1.7357
1.72
1.70082
1.6814
1.66108
1.63562
1.60156
1.60313
1.61243
1.64386
1.72853
1.902
1.90863
1.8673
1.81013
1.81072
1.81209
1.81076
1.80763
1.80236
1.79573
1.78733
1.77328
1.75623
1.73778
1.71721
1.69806
1.67781
1.65886
1.63806
1.6184
1.5987
1.58371
1.56488
1.5489
1.53359
1.51804
1.50159
1.48437
1.46216
1.45946
1.46197
1.46599
1.4851
1.54266
1.64775
1.86795
1.9154
1.82772
1.80921
1.80549
1.80691
1.81253
1.81296
1.81201
1.81089
1.80843
1.80707
1.80421
1.80048
1.79748
1.79246
1.78855
1.78516
1.78601
1.78914
1.79144
1.79576
1.80286
1.8137
1.82956
1.8592
1.86773
1.86087
1.85826
1.85716
1.85727
1.8574
1.85735
1.85745
1.85771
1.85847
1.85954
1.86149
1.86425
1.8681
1.87108
1.87574
1.87541
1.87052
1.88999
1.85586
1.82774
1.79655
1.78423
1.77935
1.76574
1.75467
1.74953
1.74329
1.73284
1.71879
1.70041
1.68335
1.66484
1.64386
1.64474
1.65248
1.68006
1.76022
1.92344
1.94352
1.90123
1.84409
1.83002
1.82656
1.82246
1.82026
1.81622
1.81112
1.80475
1.79573
1.78416
1.76925
1.75269
1.73318
1.71471
1.69533
1.67561
1.65558
1.63715
1.6188
1.59932
1.57968
1.56594
1.54955
1.53248
1.51558
1.49989
1.4871
1.4715
1.45306
1.45631
1.46095
1.47737
1.52382
1.62446
1.80305
1.90603
1.82216
1.79821
1.786
1.78751
1.78952
1.79343
1.79396
1.79423
1.7932
1.78955
1.78775
1.78509
1.77797
1.7762
1.77331
1.77328
1.77589
1.77842
1.78283
1.79067
1.80274
1.821
1.8563
1.86141
1.85443
1.8505
1.84997
1.84895
1.84811
1.84789
1.8474
1.84612
1.84607
1.84722
1.84942
1.85184
1.85454
1.85591
1.85833
1.86003
1.85626
1.89068
1.8598
1.8277
1.80015
1.77906
1.77481
1.76457
1.74702
1.74091
1.73692
1.72858
1.71669
1.70043
1.68574
1.66897
1.67239
1.68265
1.71112
1.78998
1.94477
1.98165
1.93923
1.87924
1.86063
1.85189
1.84105
1.8313
1.82485
1.81877
1.8125
1.80509
1.79645
1.78646
1.77421
1.76023
1.74444
1.72634
1.70691
1.68562
1.66923
1.65089
1.63057
1.61061
1.59616
1.5793
1.56301
1.54652
1.5311
1.51394
1.50202
1.48729
1.46976
1.45209
1.44854
1.45495
1.46645
1.50898
1.59053
1.7288
1.89849
1.82753
1.79422
1.77216
1.77512
1.77617
1.78075
1.78124
1.78024
1.77737
1.77527
1.77174
1.76768
1.76176
1.76166
1.76063
1.76272
1.76534
1.77031
1.77912
1.793
1.81501
1.85625
1.85601
1.84666
1.84342
1.84286
1.84131
1.84038
1.83944
1.8365
1.83612
1.83681
1.83804
1.8388
1.83907
1.84039
1.84222
1.84538
1.84688
1.84357
1.91827
1.86521
1.83251
1.80246
1.77193
1.76703
1.76174
1.74269
1.73385
1.73048
1.72371
1.71315
1.70069
1.68764
1.69109
1.70183
1.73168
1.81152
1.96515
2.01124
1.96699
1.90484
1.88446
1.87428
1.86055
1.84517
1.83313
1.82137
1.81514
1.80871
1.80138
1.79352
1.78505
1.77531
1.76357
1.74995
1.73396
1.71646
1.69661
1.67816
1.65905
1.63881
1.62144
1.60359
1.58568
1.57308
1.55789
1.54017
1.52401
1.50922
1.49493
1.48182
1.46573
1.44126
1.44195
1.44391
1.45068
1.48612
1.56524
1.69226
1.87663
1.82194
1.77685
1.75596
1.76099
1.76193
1.76446
1.76626
1.76511
1.76234
1.75684
1.75373
1.75074
1.74945
1.74774
1.74893
1.75202
1.75787
1.76891
1.78605
1.8132
1.85892
1.85368
1.8415
1.8384
1.83762
1.83607
1.83364
1.82997
1.8286
1.82898
1.82859
1.82798
1.82783
1.8282
1.82941
1.83133
1.83351
1.83377
1.83156
1.97448
1.87423
1.83022
1.79973
1.76229
1.75051
1.75156
1.74265
1.7264
1.7254
1.71978
1.70714
1.70122
1.70612
1.71757
1.74743
1.82893
1.98666
2.03926
1.99123
1.93017
1.90595
1.89574
1.88159
1.86623
1.85048
1.83405
1.82267
1.81535
1.80931
1.8026
1.79462
1.78576
1.77598
1.76491
1.75219
1.73823
1.72242
1.70564
1.6873
1.6674
1.64962
1.63056
1.60943
1.59293
1.57933
1.56444
1.54846
1.53253
1.51551
1.50401
1.49091
1.47666
1.46062
1.44472
1.42364
1.43345
1.4426
1.47416
1.54188
1.65215
1.84268
1.81602
1.75734
1.73741
1.73953
1.74223
1.74523
1.74755
1.7465
1.74397
1.74052
1.7347
1.73332
1.73526
1.7361
1.73811
1.74395
1.75673
1.77863
1.81539
1.86295
1.85117
1.83601
1.83502
1.83366
1.83007
1.82613
1.8243
1.82276
1.82294
1.82165
1.819
1.81871
1.81888
1.81948
1.81988
1.8205
1.82176
1.82016
1.93699
1.89496
1.83373
1.80214
1.76961
1.74443
1.74127
1.73808
1.72575
1.7208
1.71553
1.70819
1.7118
1.72647
1.76253
1.84386
1.99724
2.06938
2.0144
1.96193
1.92655
1.9174
1.90417
1.88867
1.87207
1.8548
1.84047
1.82802
1.81626
1.8085
1.80091
1.79296
1.78383
1.77394
1.76331
1.75197
1.73939
1.7256
1.71047
1.69402
1.67701
1.65911
1.64028
1.62246
1.6051
1.58805
1.57233
1.55672
1.54155
1.52679
1.51267
1.49778
1.48388
1.46873
1.45199
1.43069
1.42267
1.42947
1.43443
1.45761
1.51658
1.61289
1.80066
1.81812
1.75437
1.73856
1.72663
1.72999
1.73282
1.7333
1.73201
1.72885
1.72417
1.71938
1.72079
1.72335
1.72642
1.73364
1.7484
1.775
1.82778
1.86307
1.84168
1.83292
1.83231
1.82799
1.82488
1.82325
1.82131
1.81976
1.81805
1.81623
1.81348
1.81256
1.81162
1.81101
1.81033
1.81022
1.81069
1.80977
2.13934
1.91905
1.85692
1.8125
1.78819
1.75597
1.74626
1.74108
1.72936
1.72211
1.71892
1.72219
1.73167
1.76682
1.8529
2.0061
2.09988
2.03499
1.99339
1.94696
1.93573
1.92296
1.90893
1.89394
1.87759
1.86081
1.84682
1.83282
1.82008
1.80951
1.80085
1.79204
1.78279
1.77272
1.76213
1.75109
1.73915
1.72643
1.71251
1.69786
1.68202
1.66571
1.6485
1.63098
1.61313
1.59525
1.57908
1.5639
1.54893
1.53404
1.51941
1.50422
1.48911
1.47356
1.45926
1.44407
1.42156
1.41769
1.42214
1.42279
1.44031
1.49307
1.58846
1.77406
1.81596
1.74764
1.73235
1.71271
1.71682
1.71838
1.71821
1.71693
1.71384
1.70964
1.70849
1.71139
1.71504
1.72516
1.74438
1.77884
1.85
1.85868
1.83483
1.83187
1.82828
1.82153
1.82167
1.8219
1.82012
1.81818
1.81558
1.81194
1.80902
1.8065
1.80529
1.8049
1.80416
1.80322
1.80243
1.8014
2.36618
2.01566
1.9159
1.82229
1.79946
1.77235
1.7545
1.74769
1.72712
1.72611
1.73028
1.74177
1.77431
1.85599
1.99976
2.13051
2.05636
2.02268
1.97815
1.96225
1.95009
1.93635
1.92121
1.90453
1.88608
1.86862
1.85325
1.83903
1.82497
1.81136
1.79971
1.79031
1.78058
1.77035
1.75949
1.74803
1.73605
1.72389
1.71129
1.69817
1.68428
1.66952
1.65393
1.63752
1.62056
1.60317
1.58599
1.57018
1.55536
1.54047
1.52569
1.51055
1.49558
1.47921
1.466
1.45106
1.43442
1.42123
1.41286
1.40393
1.41412
1.43538
1.48423
1.57098
1.71071
1.80603
1.7366
1.71559
1.698
1.70024
1.70282
1.70298
1.70227
1.69833
1.69868
1.70036
1.70388
1.71623
1.74155
1.78893
1.86802
1.85388
1.82876
1.82833
1.82509
1.81601
1.81624
1.81605
1.81534
1.81437
1.8122
1.80875
1.8079
1.80562
1.80211
1.80064
1.79988
1.79886
1.79753
1.79567
2.37378
2.20849
1.92614
1.87336
1.81443
1.78581
1.75753
1.74069
1.733
1.73508
1.74741
1.78091
1.863
2.0051
2.16002
2.07526
2.05039
2.01464
1.98262
1.97179
1.95977
1.94559
1.92893
1.91027
1.89198
1.87713
1.86175
1.84586
1.8298
1.81544
1.80208
1.79018
1.77905
1.76786
1.75656
1.74487
1.73294
1.72076
1.70837
1.69582
1.68283
1.66944
1.65511
1.63992
1.62389
1.60724
1.58993
1.5736
1.55911
1.54441
1.52921
1.51419
1.49854
1.48411
1.46947
1.45385
1.44235
1.42953
1.41157
1.40002
1.40254
1.4103
1.4294
1.46888
1.55421
1.68758
1.79849
1.74484
1.71593
1.69597
1.69432
1.69765
1.69671
1.69546
1.69479
1.69548
1.70084
1.71692
1.75107
1.82257
1.87326
1.84012
1.82853
1.82682
1.81987
1.81004
1.80856
1.81011
1.81062
1.80928
1.80604
1.80209
1.80216
1.80233
1.80126
1.79919
1.79782
1.79685
1.79558
1.79311
1.78074
2.42618
2.07463
1.89955
1.83385
1.78263
1.75848
1.72699
1.73695
1.75198
1.78169
1.86736
2.01712
2.18779
2.09567
2.07801
2.04482
2.00599
1.99531
1.98402
1.97054
1.95423
1.93634
1.91671
1.90054
1.88426
1.86793
1.8517
1.83533
1.81946
1.80432
1.79079
1.77782
1.76518
1.75243
1.73946
1.72683
1.71419
1.70232
1.69043
1.67841
1.66594
1.65296
1.63916
1.62462
1.60934
1.59344
1.57829
1.56362
1.54903
1.53441
1.52
1.50503
1.49195
1.47696
1.46653
1.45466
1.44074
1.42868
1.41524
1.40168
1.40455
1.41303
1.42617
1.47103
1.54978
1.65554
1.80835
1.77295
1.72627
1.70703
1.69744
1.69764
1.69808
1.69887
1.70135
1.71027
1.73152
1.77763
1.87277
1.87123
1.83983
1.83504
1.82871
1.81515
1.80915
1.80927
1.8099
1.80878
1.80758
1.80724
1.80537
1.80111
1.79825
1.7999
1.79963
1.79889
1.79811
1.79718
1.79462
1.32466
2.31661
2.25425
1.94764
1.86133
1.79136
1.76719
1.73969
1.75322
1.77983
1.86777
2.02869
2.22248
2.11851
2.0984
2.06211
2.02409
2.01563
2.00542
1.99301
1.97807
1.9607
1.94116
1.92398
1.90641
1.88896
1.87177
1.855
1.83831
1.82138
1.80524
1.79004
1.77506
1.76099
1.74684
1.73364
1.72059
1.70859
1.69707
1.68559
1.67403
1.66219
1.6498
1.637
1.62353
1.60961
1.59524
1.58084
1.56611
1.5513
1.53616
1.52254
1.50862
1.49627
1.48384
1.47299
1.46242
1.45173
1.44432
1.4359
1.4243
1.40622
1.4092
1.4206
1.43432
1.47291
1.54595
1.65788
1.82233
1.79203
1.73877
1.73117
1.7116
1.71047
1.71075
1.71554
1.73294
1.76927
1.83897
1.91139
1.879
1.85572
1.8504
1.84128
1.82833
1.82439
1.82159
1.81697
1.81535
1.81489
1.81513
1.81348
1.80974
1.80468
1.80275
1.80366
1.80491
1.80492
1.80551
1.80512
1.08328
1.50307
2.27683
2.11746
1.87317
1.82965
1.7732
1.7755
1.7892
1.86927
2.03543
2.24749
2.13771
2.11119
2.06298
2.03397
2.02996
2.02159
2.01027
1.99555
1.97763
1.95791
1.94058
1.92278
1.904
1.88585
1.86927
1.85294
1.83661
1.82011
1.80346
1.78773
1.77239
1.75774
1.74339
1.72947
1.71661
1.7036
1.69217
1.68116
1.66991
1.65867
1.64716
1.63524
1.62286
1.6102
1.59743
1.58461
1.57156
1.55866
1.54564
1.53286
1.52197
1.51055
1.50125
1.49185
1.48303
1.47528
1.46567
1.4598
1.45365
1.44658
1.43319
1.43723
1.449
1.46112
1.49546
1.57213
1.67562
1.84762
1.85068
1.79404
1.7769
1.75142
1.74665
1.75096
1.78339
1.84127
1.94603
1.94017
1.90317
1.89559
1.88422
1.86785
1.86299
1.85742
1.84982
1.8437
1.84185
1.83887
1.83452
1.83001
1.82923
1.82746
1.82438
1.82207
1.82329
1.82567
1.82928
1.83125
1.01703
1.11068
1.75362
2.40822
2.08313
1.8765
1.79257
1.81185
1.8905
2.06023
2.28046
2.16492
2.12558
2.05885
2.0414
2.04168
2.03652
2.02734
2.01343
1.99621
1.97655
1.96043
1.94367
1.92586
1.90739
1.88902
1.87208
1.85588
1.8397
1.82327
1.80663
1.78981
1.77403
1.75892
1.7442
1.72932
1.71513
1.7011
1.68905
1.67795
1.66769
1.65704
1.64603
1.6348
1.62338
1.61252
1.60186
1.59093
1.58033
1.56966
1.55879
1.54772
1.5383
1.52917
1.52046
1.51473
1.50774
1.50388
1.49859
1.49427
1.49064
1.48743
1.48445
1.47944
1.48232
1.49337
1.50915
1.54076
1.60579
1.71489
1.92132
1.9153
1.85696
1.82185
1.80652
1.81725
1.87532
1.99519
2.01663
1.98292
1.9645