/*--------------------------------*- C++ -*----------------------------------*\
| =========                 |                                                 |
| \\      /  F ield         | OpenFOAM: The Open Source CFD Toolbox           |
|  \\    /   O peration     | Version:  v2106                                 |
|   \\  /    A nd           | Website:  www.openfoam.com                      |
|    \\/     M anipulation  |                                                 |
\*---------------------------------------------------------------------------*/
FoamFile
{
    version     2.0;
    format      ascii;
    arch        "LSB;label=32;scalar=64";
    class       volVectorField;
    location    "3";
    object      U;
}
// * * * * * * * * * * * * * * * * * * * * * * * * * * * * * * * * * * * * * //

dimensions      [0 1 -1 0 0 0 0];

internalField   nonuniform List<vector> 
5250
(
(3 5.96321e-14 0)
(3 -1.0499e-12 0)
(3 -7.37403e-13 0)
(3 3.49825e-11 0)
(3 -2.45054e-10 0)
(3 -1.72588e-09 0)
(3 -2.65119e-09 0)
(3 1.14177e-09 0)
(3.00002 6.18191e-08 0)
(2.99994 5.10397e-07 0)
(3.00063 5.62091e-06 0)
(2.99873 4.65107e-05 0)
(3.03417 0.00048139 0)
(3.00646 0.00305546 0)
(2.41085 0.00673618 0)
(0.598963 0.0327614 0)
(0.572455 0.0147415 0)
(0.542922 0.022604 0)
(0.486448 0.0260071 0)
(0.416198 0.0219297 0)
(0.357473 0.0224716 0)
(0.28251 0.0276604 0)
(0.207277 0.0327471 0)
(0.125898 0.0342843 0)
(0.0455035 0.038195 0)
(3 7.26375e-14 0)
(3 -3.14434e-13 0)
(3 2.03577e-12 0)
(3 4.13749e-12 0)
(3 3.8896e-11 0)
(3 9.5878e-12 0)
(3 3.45132e-09 0)
(3 6.9593e-09 0)
(3.00002 2.30913e-07 0)
(2.99994 1.34814e-06 0)
(3.00062 1.78015e-05 0)
(2.99874 0.00013894 0)
(3.03333 0.00149456 0)
(3.0091 0.00940267 0)
(2.42189 0.0258953 0)
(0.611422 0.089623 0)
(0.565598 0.0450531 0)
(0.544791 0.0591505 0)
(0.488243 0.0646527 0)
(0.413438 0.073036 0)
(0.351136 0.0842525 0)
(0.275174 0.091897 0)
(0.204171 0.0949109 0)
(0.12269 0.0991574 0)
(0.0420671 0.104547 0)
(3 -3.13189e-13 0)
(3 -3.34121e-13 0)
(3 5.56331e-12 0)
(3 -7.37789e-11 0)
(3 5.75009e-10 0)
(3 -8.58127e-09 0)
(3 -1.64088e-08 0)
(3 2.2844e-08 0)
(3.00001 1.57514e-07 0)
(2.99994 3.02586e-06 0)
(3.00058 1.85551e-05 0)
(2.99883 0.000237998 0)
(3.03142 0.00192092 0)
(3.01435 0.0152521 0)
(2.44577 0.0431111 0)
(0.651662 0.160381 0)
(0.54724 0.0674657 0)
(0.537943 0.106599 0)
(0.485371 0.118143 0)
(0.412076 0.123184 0)
(0.35484 0.133039 0)
(0.282799 0.143812 0)
(0.207947 0.15662 0)
(0.12427 0.167236 0)
(0.0434632 0.174514 0)
(3 -7.15137e-14 0)
(3 6.30049e-13 0)
(3 -1.03683e-12 0)
(3 9.70206e-11 0)
(3 2.67188e-10 0)
(3 -3.26594e-09 0)
(3 1.9091e-08 0)
(3 -9.94396e-08 0)
(3.00002 6.67116e-07 0)
(2.99993 -2.11316e-06 0)
(3.00068 3.74584e-05 0)
(2.99817 0.000119718 0)
(3.03342 0.00309735 0)
(3.02327 0.022215 0)
(2.48705 0.0631389 0)
(0.728928 0.226017 0)
(0.52472 0.111902 0)
(0.538893 0.139562 0)
(0.487978 0.153785 0)
(0.418848 0.169066 0)
(0.361205 0.187352 0)
(0.285014 0.209472 0)
(0.209065 0.224811 0)
(0.12884 0.23556 0)
(0.0431248 0.245201 0)
(3 2.59732e-13 0)
(3 2.9368e-12 0)
(3 -3.87e-13 0)
(3 9.87195e-11 0)
(3 3.21618e-10 0)
(3 7.34542e-09 0)
(3 9.40634e-08 0)
(3 -1.08308e-07 0)
(3 1.40828e-06 0)
(3.00001 -4.03201e-07 0)
(3.00016 -1.67687e-05 0)
(3.00065 0.000529263 0)
(3.016 -0.0169709 0)
(3.03239 0.0301954 0)
(2.53744 0.0815535 0)
(0.81991 0.306621 0)
(0.493025 0.149213 0)
(0.545534 0.182913 0)
(0.491701 0.198184 0)
(0.422047 0.216067 0)
(0.364365 0.242944 0)
(0.293017 0.266486 0)
(0.2213 0.285951 0)
(0.134245 0.306208 0)
(0.0492135 0.319797 0)
(3 1.67479e-13 0)
(3 -1.70359e-12 0)
(3 5.86308e-12 0)
(3 -3.99506e-11 0)
(3 2.58825e-10 0)
(3 5.78345e-10 0)
(3 8.38758e-09 0)
(3 3.33101e-08 0)
(3 8.20863e-07 0)
(3.00001 6.99461e-07 0)
(3.00007 5.6304e-05 0)
(3.00099 0.000323094 0)
(3.00802 0.0028481 0)
(3.05096 0.0343382 0)
(2.60616 0.101123 0)
(0.94081 0.39783 0)
(0.452358 0.181006 0)
(0.545813 0.219884 0)
(0.492355 0.233726 0)
(0.41945 0.267402 0)
(0.37189 0.292515 0)
(0.304486 0.328078 0)
(0.226708 0.357237 0)
(0.149358 0.381655 0)
(0.0471071 0.401588 0)
(3 -3.01333e-14 0)
(3 1.84958e-13 0)
(3 9.44716e-13 0)
(3 -9.4925e-12 0)
(3 2.43075e-10 0)
(3 1.11949e-10 0)
(3 1.60251e-08 0)
(3 1.14207e-08 0)
(3 8.76498e-07 0)
(3.00001 6.6922e-07 0)
(3.00006 5.1122e-05 0)
(3.00097 0.000212374 0)
(3.00654 0.00294297 0)
(3.06485 0.0346414 0)
(2.69554 0.106739 0)
(1.12998 0.500902 0)
(0.392912 0.225897 0)
(0.539848 0.260653 0)
(0.481568 0.274675 0)
(0.42207 0.306051 0)
(0.379553 0.34014 0)
(0.319835 0.384524 0)
(0.252661 0.419334 0)
(0.158647 0.459826 0)
(0.0692996 0.492087 0)
(3 1.4051e-14 0)
(3 1.06894e-13 0)
(3 1.41788e-12 0)
(3 8.85079e-12 0)
(3 1.14541e-10 0)
(3 9.55323e-10 0)
(3 8.83017e-09 0)
(3 7.75711e-08 0)
(3 7.01277e-07 0)
(3.00002 6.3682e-06 0)
(2.99999 5.63226e-05 0)
(3.0011 -0.00113237 0)
(3.00282 0.00407365 0)
(3.06965 0.0319556 0)
(2.80041 0.0909863 0)
(1.46408 0.605601 0)
(0.381284 0.274817 0)
(0.54764 0.291992 0)
(0.489109 0.301134 0)
(0.41728 0.351365 0)
(0.397841 0.379 0)
(0.32876 0.444949 0)
(0.269015 0.497057 0)
(0.177244 0.550352 0)
(0.0720757 0.602441 0)
(3 3.90493e-14 0)
(3 9.90579e-14 0)
(3 3.49078e-12 0)
(3 4.71241e-11 0)
(3 -4.97687e-11 0)
(3 1.32122e-09 0)
(3 1.07687e-09 0)
(3 3.79253e-08 0)
(3 5.84094e-07 0)
(3.00001 -5.01711e-06 0)
(3.00004 0.000131347 0)
(3.00045 -0.00225911 0)
(3.00062 0.00318226 0)
(3.06651 0.0242282 0)
(2.87653 0.0430108 0)
(1.95883 0.666449 0)
(0.442184 0.383153 0)
(0.590226 0.345053 0)
(0.524341 0.340934 0)
(0.433859 0.383396 0)
(0.427588 0.417223 0)
(0.35626 0.496861 0)
(0.326926 0.557308 0)
(0.229968 0.63031 0)
(0.146506 0.732216 0)
(3 1.06506e-14 0)
(3 2.08363e-14 0)
(3 2.92897e-13 0)
(3 4.40294e-12 0)
(3 -1.2601e-11 0)
(3 1.54645e-10 0)
(3 9.20642e-09 0)
(3 2.35983e-08 0)
(3 5.02348e-07 0)
(3 2.34264e-06 0)
(3.00005 4.5891e-06 0)
(3.00022 0.000189903 0)
(2.99913 0.00200085 0)
(3.05762 0.0185402 0)
(2.92349 0.0406164 0)
(2.23067 0.576833 0)
(0.601504 0.491331 0)
(0.651012 0.427055 0)
(0.590854 0.405347 0)
(0.483424 0.425778 0)
(0.46763 0.460306 0)
(0.404185 0.543523 0)
(0.361655 0.637852 0)
(0.292707 0.745549 0)
(0.0997054 0.966114 0)
(3 -3.06988e-15 0)
(3 -7.5668e-14 0)
(3 1.50349e-13 0)
(3 -5.92692e-12 0)
(3 -3.01914e-11 0)
(3 -2.21503e-10 0)
(3 4.99972e-09 0)
(3 8.01513e-09 0)
(3 3.0264e-07 0)
(3.00002 1.41385e-06 0)
(2.99992 2.18765e-05 0)
(3.00079 0.000118885 0)
(2.99845 0.00146888 0)
(3.04537 0.0156561 0)
(2.9729 0.065077 0)
(2.41797 0.459292 0)
(0.739221 0.594562 0)
(0.74114 0.496835 0)
(0.679667 0.465153 0)
(0.573329 0.478316 0)
(0.519973 0.519414 0)
(0.482558 0.586486 0)
(0.440873 0.698819 0)
(0.475117 0.83447 0)
(0.416498 1.15042 0)
(3 -4.12343e-14 0)
(3 1.30764e-13 0)
(3 9.50855e-13 0)
(3 6.20879e-13 0)
(3 9.52934e-11 0)
(3 6.98127e-10 0)
(3 -2.45023e-09 0)
(3 3.85252e-08 0)
(3 1.17317e-08 0)
(3.00001 2.30454e-06 0)
(2.99996 6.83815e-06 0)
(3.00061 0.000151058 0)
(2.99866 0.000857101 0)
(3.0327 0.0124356 0)
(3.01774 0.0752824 0)
(2.57802 0.355221 0)
(0.936523 0.657059 0)
(0.722074 0.530902 0)
(0.727997 0.549539 0)
(0.682443 0.549724 0)
(0.592473 0.581978 0)
(0.5777 0.631623 0)
(0.535311 0.749541 0)
(0.677247 0.871511 0)
(0.651903 1.06512 0)
(3 -1.02562e-13 0)
(3 1.82836e-13 0)
(3 -1.17423e-12 0)
(3 1.22009e-11 0)
(3 -2.76622e-10 0)
(3 5.88735e-10 0)
(3 -4.12643e-09 0)
(3 2.79358e-08 0)
(3 1.69145e-08 0)
(3 1.64268e-06 0)
(3.00002 -6.35689e-06 0)
(3.00002 0.00011632 0)
(3.0017 0.000514335 0)
(3.01075 0.00440143 0)
(3.05633 0.0719449 0)
(2.72816 0.300771 0)
(1.21343 0.737172 0)
(0.678161 0.544943 0)
(0.748864 0.559488 0)
(0.741491 0.619715 0)
(0.692239 0.637269 0)
(0.676421 0.674326 0)
(0.66432 0.74314 0)
(0.774121 0.860368 0)
(0.852004 0.92106 0)
(3 1.04602e-15 0)
(3 -1.41149e-15 0)
(3 -1.59244e-13 0)
(3 2.19126e-12 0)
(3 9.82677e-12 0)
(3 1.30313e-10 0)
(3 5.91731e-10 0)
(3 7.60074e-09 0)
(3 1.88964e-07 0)
(3 9.09989e-07 0)
(3 1.3773e-05 0)
(3.00001 0.000171853 0)
(3.00084 -0.00547845 0)
(3.00137 0.00767743 0)
(3.07613 0.0528368 0)
(2.88494 0.213567 0)
(1.69468 0.840032 0)
(0.659174 0.576144 0)
(0.74487 0.588122 0)
(0.764902 0.637594 0)
(0.747129 0.683039 0)
(0.761018 0.711861 0)
(0.758549 0.762684 0)
(0.842455 0.831201 0)
(0.932279 0.868936 0)
(3 -4.01374e-15 0)
(3 -7.3175e-14 0)
(3 1.41387e-13 0)
(3 5.39065e-13 0)
(3 1.15918e-11 0)
(3 3.11029e-11 0)
(3 -1.22101e-09 0)
(3 1.2371e-08 0)
(3 -5.63612e-09 0)
(3.00001 7.51955e-07 0)
(2.99997 2.82582e-06 0)
(3.00023 4.31534e-05 0)
(2.99928 0.000370042 0)
(2.99968 0.00328483 0)
(3.0605 0.0305098 0)
(2.96488 0.113659 0)
(2.23929 0.82284 0)
(0.767648 0.660628 0)
(0.793015 0.615611 0)
(0.80268 0.637454 0)
(0.801423 0.685673 0)
(0.82174 0.722616 0)
(0.844697 0.765107 0)
(0.904959 0.815106 0)
(0.991312 0.838318 0)
(3 1.87046e-15 0)
(3 4.39797e-14 0)
(3 4.31046e-13 0)
(3 4.9086e-13 0)
(3 1.71311e-11 0)
(3 7.37524e-11 0)
(3 1.16331e-09 0)
(3 8.60897e-09 0)
(3 -2.41649e-08 0)
(3 4.88796e-07 0)
(3.00002 4.58004e-07 0)
(2.99992 2.91458e-05 0)
(3.00084 0.000102788 0)
(2.99804 0.00170262 0)
(3.0443 0.0210298 0)
(3.00896 0.103642 0)
(2.56849 0.666097 0)
(1.01252 0.752724 0)
(0.845674 0.661227 0)
(0.845145 0.666577 0)
(0.851154 0.700609 0)
(0.872053 0.738711 0)
(0.906582 0.77396 0)
(0.957939 0.814505 0)
(1.0434 0.819489 0)
(3 -1.82195e-14 0)
(3 7.25495e-14 0)
(3 -3.97826e-13 0)
(3 2.3772e-12 0)
(3 1.74778e-12 0)
(3 5.42181e-11 0)
(3 1.77209e-09 0)
(3 -1.62485e-08 0)
(3 5.51096e-08 0)
(3 -1.33763e-07 0)
(3 2.66634e-06 0)
(3.00001 1.00472e-05 0)
(3.00013 5.83555e-05 0)
(3.00063 0.0013362 0)
(3.01349 8.34748e-05 0)
(3.05292 0.101768 0)
(2.78759 0.523027 0)
(1.39288 0.858018 0)
(0.85518 0.68149 0)
(0.879643 0.683012 0)
(0.901683 0.714609 0)
(0.926694 0.751799 0)
(0.966352 0.780001 0)
(1.01395 0.809723 0)
(1.08832 0.810295 0)
(3 5.31647e-16 0)
(3 1.58749e-16 0)
(3 7.44773e-15 0)
(3 5.3494e-13 0)
(3 1.7893e-12 0)
(3 2.76404e-11 0)
(3 1.16866e-10 0)
(3 1.12394e-09 0)
(3 2.19612e-08 0)
(3 1.35423e-07 0)
(3 1.55635e-06 0)
(3.00004 1.13699e-05 0)
(2.99986 0.000116239 0)
(3.00163 0.000900098 0)
(2.99849 0.00880978 0)
(3.08004 0.0639192 0)
(2.97066 0.335 0)
(1.9925 0.988176 0)
(0.862243 0.732009 0)
(0.898349 0.718646 0)
(0.930969 0.73213 0)
(0.959069 0.761135 0)
(1.00139 0.781119 0)
(1.05099 0.805576 0)
(1.12303 0.804903 0)
(3 -9.52169e-16 0)
(3 9.06763e-15 0)
(3 7.16888e-14 0)
(3 -2.87884e-14 0)
(3 4.29584e-12 0)
(3 1.10953e-11 0)
(3 2.83712e-10 0)
(3 1.55564e-09 0)
(3 -1.41466e-09 0)
(3 8.90602e-08 0)
(3 2.14077e-07 0)
(3.00002 5.97983e-06 0)
(2.99993 2.9392e-05 0)
(3.00098 0.000419981 0)
(2.99918 0.00304944 0)
(3.05549 0.0332724 0)
(3.03125 0.18878 0)
(2.52733 0.88721 0)
(1.10384 0.814967 0)
(0.957802 0.743467 0)
(0.969812 0.733856 0)
(0.996303 0.751529 0)
(1.03674 0.772747 0)
(1.08569 0.796848 0)
(1.15261 0.801266 0)
(3 2.30537e-16 0)
(3 8.28401e-15 0)
(3 5.93884e-14 0)
(3 -2.95196e-14 0)
(3 3.15041e-12 0)
(3 8.95903e-12 0)
(3 2.09591e-10 0)
(3 1.18194e-09 0)
(3 -1.27156e-09 0)
(3 4.03033e-08 0)
(3 1.43662e-07 0)
(3 2.0255e-06 0)
(3.00001 1.95091e-05 0)
(3.00018 0.000109896 0)
(3.00096 0.00188889 0)
(3.01548 0.00782677 0)
(3.07904 0.142754 0)
(2.83585 0.696436 0)
(1.5274 0.916775 0)
(1.0108 0.774231 0)
(1.01131 0.751428 0)
(1.0315 0.759398 0)
(1.06761 0.77425 0)
(1.11373 0.793332 0)
(1.17542 0.797117 0)
(3 4.90559e-17 0)
(3 1.09255e-15 0)
(3 7.10001e-15 0)
(3 6.6727e-14 0)
(3 4.11076e-13 0)
(3 4.96153e-12 0)
(3 3.20975e-11 0)
(3 3.60066e-10 0)
(3 2.27563e-09 0)
(3 2.49208e-08 0)
(3 1.95087e-07 0)
(2.99999 1.86769e-06 0)
(3.00005 1.529e-05 0)
(2.99983 0.000140744 0)
(3.00198 0.00116525 0)
(2.99838 0.0105113 0)
(3.10113 0.0818249 0)
(3.02369 0.45206 0)
(2.16024 1.01538 0)
(1.05678 0.835384 0)
(1.05239 0.787356 0)
(1.06847 0.783558 0)
(1.09761 0.786152 0)
(1.13851 0.795537 0)
(1.1934 0.796828 0)
(3 -5.37943e-16 0)
(3 2.00905e-15 0)
(3 1.08732e-14 0)
(3 4.36373e-14 0)
(3 1.93504e-13 0)
(3 3.2078e-12 0)
(3 2.06654e-11 0)
(3 1.58977e-10 0)
(3 4.08657e-09 0)
(3 -7.26903e-09 0)
(3 1.51815e-07 0)
(3 -5.87788e-08 0)
(3 6.84897e-06 0)
(3.00003 3.23857e-05 0)
(3.00037 0.000217693 0)
(3.00213 0.00428698 0)
(3.03258 -0.00573118 0)
(3.10304 0.26627 0)
(2.69666 0.947449 0)
(1.36861 0.921534 0)
(1.11055 0.837179 0)
(1.11079 0.796941 0)
(1.13264 0.792424 0)
(1.16755 0.794909 0)
(1.21514 0.79383 0)
(3 1.25145e-17 0)
(3 1.86474e-16 0)
(3 2.40575e-15 0)
(3 1.70688e-14 0)
(3 1.38537e-13 0)
(3 1.28587e-12 0)
(3 1.04524e-11 0)
(3 8.9356e-11 0)
(3 7.63057e-10 0)
(3 5.95984e-09 0)
(3 5.46454e-08 0)
(3 4.47595e-07 0)
(2.99999 3.97913e-06 0)
(3.0001 3.2857e-05 0)
(2.99958 0.000288699 0)
(3.00425 0.00234755 0)
(2.99414 0.0203619 0)
(3.15915 0.150893 0)
(3.00441 0.693709 0)
(1.9225 0.988417 0)
(1.18044 0.868035 0)
(1.15569 0.816155 0)
(1.16987 0.80705 0)
(1.19705 0.802012 0)
(1.23695 0.797264 0)
(3 -9.73189e-17 0)
(3 2.77358e-17 0)
(3 -4.26806e-16 0)
(3 9.60375e-15 0)
(3 -7.12329e-14 0)
(3 5.97407e-13 0)
(3 1.26276e-13 0)
(3 -1.70179e-11 0)
(3 2.56299e-10 0)
(3 1.95959e-09 0)
(3 7.61493e-09 0)
(3 2.97909e-07 0)
(3 -2.00627e-07 0)
(3.00001 1.27583e-05 0)
(3.00005 5.78529e-05 0)
(3.00064 0.000262911 0)
(3.00318 0.0076568 0)
(3.05392 -0.0236387 0)
(3.13627 0.430229 0)
(2.54716 1.0705 0)
(1.36866 0.932583 0)
(1.2147 0.880459 0)
(1.20732 0.826557 0)
(1.22734 0.816257 0)
(1.26089 0.805292 0)
(3 -4.1916e-17 0)
(3 -1.19529e-16 0)
(3 4.35294e-16 0)
(3 3.34055e-15 0)
(3 3.10595e-14 0)
(3 2.75097e-13 0)
(3 2.26815e-12 0)
(3 1.90638e-11 0)
(3 1.58926e-10 0)
(3 1.39593e-09 0)
(3 1.0955e-08 0)
(3 9.64973e-08 0)
(3 6.35951e-07 0)
(2.99998 6.53053e-06 0)
(3.00019 5.14442e-05 0)
(2.99919 0.000444866 0)
(3.00718 0.00345073 0)
(2.98714 0.0293173 0)
(3.21985 0.216407 0)
(2.98368 0.83562 0)
(1.84963 0.992366 0)
(1.30145 0.91606 0)
(1.25441 0.858125 0)
(1.27079 0.833665 0)
(1.29157 0.819337 0)
(3 7.03603e-17 0)
(3 -5.07671e-16 0)
(3 1.93089e-15 0)
(3 -7.29561e-16 0)
(3 1.82581e-14 0)
(3 2.03853e-13 0)
(3 1.30024e-12 0)
(3 6.36993e-11 0)
(3 -2.89629e-11 0)
(3 1.51792e-09 0)
(3 1.39989e-09 0)
(3 6.81888e-08 0)
(3 6.74872e-07 0)
(3 -6.6109e-08 0)
(3.00001 1.85521e-05 0)
(3.00006 8.64689e-05 0)
(3.00095 -3.91059e-05 0)
(3.0036 0.0101953 0)
(3.07812 -0.0244143 0)
(3.18449 0.559041 0)
(2.4861 1.07188 0)
(1.43421 0.945791 0)
(1.31616 0.916288 0)
(1.30729 0.849765 0)
(1.32309 0.83563 0)
(3 3.78539e-17 0)
(3 -6.21081e-17 0)
(3 -1.97954e-16 0)
(3 3.85027e-16 0)
(3 7.30678e-15 0)
(3 6.66559e-14 0)
(3 5.40114e-13 0)
(3 4.51722e-12 0)
(3 3.11178e-11 0)
(3 2.84046e-10 0)
(3 2.15404e-09 0)
(3 1.78385e-08 0)
(3 1.42067e-07 0)
(3 9.59103e-07 0)
(2.99997 9.1211e-06 0)
(3.00027 6.9312e-05 0)
(2.9988 0.00060067 0)
(3.00929 0.00449347 0)
(2.98286 0.0383261 0)
(3.26233 0.279702 0)
(3.01015 0.93343 0)
(1.89973 1.02851 0)
(1.39654 0.952203 0)
(1.34103 0.894593 0)
(1.36498 0.854628 0)
(3 -2.56575e-16 0)
(3 -4.75813e-16 0)
(3 -2.45333e-16 0)
(3 5.07986e-16 0)
(3 9.73735e-15 0)
(3 -4.25807e-15 0)
(3 -8.76112e-14 0)
(3 1.89193e-12 0)
(3 2.60822e-11 0)
(3 1.3848e-11 0)
(3 1.51904e-09 0)
(3 -1.25596e-09 0)
(3 8.49424e-08 0)
(3 8.03795e-07 0)
(3 -1.6495e-07 0)
(3.00002 1.23043e-05 0)
(3.00007 9.36965e-05 0)
(3.0012 -0.00145465 0)
(3.00319 0.0107339 0)
(3.09857 0.00125206 0)
(3.25262 0.581795 0)
(2.56919 1.06329 0)
(1.54543 0.953644 0)
(1.40761 0.942247 0)
(1.39604 0.870681 0)
(3 2.65051e-17 0)
(3 -4.81244e-17 0)
(3 6.57972e-18 0)
(3 8.95903e-18 0)
(3 1.44825e-15 0)
(3 1.11721e-14 0)
(3 9.35404e-14 0)
(3 7.2132e-13 0)
(3 5.9667e-12 0)
(3 4.38127e-11 0)
(3 3.65772e-10 0)
(3 2.52018e-09 0)
(3 2.21027e-08 0)
(3 1.73235e-07 0)
(3 1.24644e-06 0)
(3.00003 1.08376e-05 0)
(2.99997 6.76614e-05 0)
(2.99831 0.000687584 0)
(3.0102 0.00485969 0)
(2.98727 0.0418716 0)
(3.28053 0.322487 0)
(3.06295 0.965219 0)
(2.02317 1.04647 0)
(1.49216 0.977941 0)
(1.42994 0.920638 0)
(3 1.53957e-16 0)
(3 3.64819e-16 0)
(3 -1.30417e-16 0)
(3 -1.717e-16 0)
(3 1.11556e-15 0)
(3 1.52802e-14 0)
(3 1.11614e-13 0)
(3 4.79198e-14 0)
(3 5.45469e-12 0)
(3 1.354e-11 0)
(3 2.85165e-10 0)
(3 3.47261e-09 0)
(3 1.76972e-09 0)
(3 1.46213e-07 0)
(3 7.14891e-08 0)
(3 9.71429e-06 0)
(3.00002 -2.2836e-05 0)
(3.00004 0.000159728 0)
(3.00137 -0.00710226 0)
(3.00232 0.0117026 0)
(3.10892 0.0126198 0)
(3.29155 0.576222 0)
(2.68665 1.06972 0)
(1.69068 0.984278 0)
(1.49739 0.968692 0)
(3 5.13189e-17 0)
(3 2.5982e-17 0)
(3 9.97416e-17 0)
(3 -1.39188e-16 0)
(3 6.0044e-16 0)
(3 2.38109e-15 0)
(3 1.64243e-14 0)
(3 1.16747e-13 0)
(3 1.04983e-12 0)
(3 7.54744e-12 0)
(3 5.93127e-11 0)
(3 3.822e-10 0)
(3 3.03662e-09 0)
(3 2.56704e-08 0)
(3 1.85939e-07 0)
(3 1.44525e-06 0)
(2.99998 1.12045e-05 0)
(3.00008 7.53818e-05 0)
(2.999 0.000666442 0)
(3.00887 0.00459752 0)
(2.98707 0.0405617 0)
(3.29586 0.309253 0)
(3.14329 0.916223 0)
(2.22979 1.06886 0)
(1.59176 0.983347 0)
(3 5.13189e-17 0)
(3 5.52575e-17 0)
(3 2.52607e-16 0)
(3 2.68056e-16 0)
(3 -6.68406e-16 0)
(3 3.54346e-15 0)
(3 2.25283e-14 0)
(3 1.89184e-14 0)
(3 5.88805e-13 0)
(3 2.25831e-12 0)
(3 2.53252e-11 0)
(3 3.98332e-10 0)
(3 -8.18615e-11 0)
(3 1.44766e-08 0)
(3 -3.57543e-08 0)
(3 1.77144e-06 0)
(3 -4.70131e-06 0)
(3.00002 9.78582e-05 0)
(3.00003 -0.000242314 0)
(3.00105 -0.00122737 0)
(3.00307 0.00809776 0)
(3.08833 0.0714203 0)
(3.44292 0.549531 0)
(2.95436 1.02519 0)
(1.91131 0.994517 0)
(3 -1.02641e-16 0)
(3 -2.57602e-16 0)
(3 -1.54155e-16 0)
(3 -1.22343e-16 0)
(3 -1.16938e-16 0)
(3 -1.89085e-16 0)
(3 1.82393e-15 0)
(3 1.6355e-14 0)
(3 1.35904e-13 0)
(3 9.68876e-13 0)
(3 -1.81749e-11 0)
(3 5.8035e-11 0)
(3 3.23181e-10 0)
(3 3.02747e-09 0)
(3 1.8855e-08 0)
(3 1.53177e-07 0)
(3 1.03461e-06 0)
(3.00002 1.93324e-06 0)
(3.00002 6.03278e-05 0)
(2.99974 0.000593317 0)
(3.00131 0.00115839 0)
(3.01368 0.0490923 0)
(3.16705 -0.28726 0)
(3.233 0.87297 0)
(2.50132 1.09097 0)
(3 -8.64242e-17 0)
(3 -1.98845e-16 0)
(3 -4.05698e-16 0)
(3 -5.17636e-16 0)
(3 -5.57133e-16 0)
(3 -1.44206e-15 0)
(3 7.31432e-16 0)
(3 3.63032e-15 0)
(3 5.67011e-14 0)
(3 1.81888e-13 0)
(3 1.98732e-12 0)
(3 2.16818e-11 0)
(3 1.96413e-10 0)
(3 1.28497e-09 0)
(3 1.49191e-08 0)
(3 1.00778e-07 0)
(3 4.98575e-08 0)
(2.99999 2.98845e-06 0)
(3.00006 1.34331e-05 0)
(2.99983 7.14923e-05 0)
(3.00241 0.00100543 0)
(2.99874 0.00747231 0)
(2.91271 0.0659983 0)
(3.4545 0.467081 0)
(3.15048 1.10707 0)
(3 -6.44388e-17 0)
(3 5.2083e-17 0)
(3 5.60134e-17 0)
(3 3.79219e-17 0)
(3 1.43659e-17 0)
(3 2.27589e-16 0)
(3 8.29965e-16 0)
(3 2.22142e-15 0)
(3 1.39648e-14 0)
(3 1.17712e-13 0)
(3 9.48127e-13 0)
(3 1.12358e-11 0)
(3 7.45975e-11 0)
(3 6.64323e-11 0)
(3 2.94945e-09 0)
(3 1.11147e-08 0)
(3 1.54993e-07 0)
(3 4.64467e-07 0)
(3 9.7116e-06 0)
(3.00006 5.24048e-05 0)
(2.99987 0.000623053 0)
(3.00363 0.00402137 0)
(2.99853 0.00398448 0)
(3.14584 0.0173877 0)
(3.40153 0.648943 0)
(3 5.13189e-17 0)
(3 2.01548e-17 0)
(3 4.39886e-17 0)
(3 5.37423e-17 0)
(3 9.66699e-18 0)
(3 1.19513e-16 0)
(3 8.5115e-16 0)
(3 1.5276e-16 0)
(3 6.01561e-15 0)
(3 3.81326e-14 0)
(3 -4.9106e-14 0)
(3 2.70853e-12 0)
(3 7.97008e-12 0)
(3 1.4319e-10 0)
(3 4.27229e-10 0)
(3 7.3437e-09 0)
(3 1.71693e-08 0)
(3 2.61456e-07 0)
(3 1.24624e-06 0)
(2.99999 1.41218e-05 0)
(3.00016 8.03627e-05 0)
(3.00013 0.000878411 0)
(3.00704 0.00511241 0)
(2.97735 0.0463046 0)
(3.35851 0.348696 0)
(3 1.53957e-16 0)
(3 1.53842e-16 0)
(3 2.55268e-16 0)
(3 3.65982e-16 0)
(3 3.42193e-16 0)
(3 3.64413e-16 0)
(3 4.44276e-16 0)
(3 -6.62121e-17 0)
(3 3.06203e-15 0)
(3 1.76711e-15 0)
(3 1.30865e-13 0)
(3 9.06834e-13 0)
(3 6.03454e-12 0)
(3 2.35589e-12 0)
(3 5.12096e-10 0)
(3 -9.39547e-10 0)
(3 1.56597e-08 0)
(3 -1.21816e-09 0)
(3 6.53207e-07 0)
(3 2.50581e-06 0)
(3.00002 1.96206e-05 0)
(3.00008 0.00017598 0)
(3.00196 0.001614 0)
(3.00031 0.00783284 0)
(3.10273 0.0506562 0)
(3 1.34299e-18 0)
(3 1.97917e-16 0)
(3 5.22399e-16 0)
(3 8.87802e-16 0)
(3 1.05258e-15 0)
(3 1.08127e-15 0)
(3 9.48985e-16 0)
(3 9.9286e-16 0)
(3 8.72708e-16 0)
(3 3.84507e-15 0)
(3 1.99059e-14 0)
(3 2.23141e-13 0)
(3 1.31884e-12 0)
(3 1.16235e-11 0)
(3 6.37044e-11 0)
(3 5.42513e-10 0)
(3 3.75014e-09 0)
(3 2.88362e-08 0)
(3 2.21124e-07 0)
(3 -2.70437e-06 0)
(3 1.80298e-05 0)
(3.00004 -0.000416338 0)
(3.00006 0.000608651 0)
(3.00307 0.00366892 0)
(3.00134 0.0314173 0)
(3 9.3e-18 0)
(3 5.18672e-17 0)
(3 -4.07713e-17 0)
(3 -8.89455e-17 0)
(3 -8.28409e-18 0)
(3 1.93139e-16 0)
(3 8.80502e-17 0)
(3 1.44772e-16 0)
(3 -2.18868e-16 0)
(3 7.76019e-16 0)
(3 1.1713e-14 0)
(3 1.42694e-14 0)
(3 -5.72926e-14 0)
(3 4.79397e-12 0)
(3 -7.01085e-12 0)
(3 1.29458e-10 0)
(3 -1.52221e-10 0)
(3 6.48175e-09 0)
(3 2.63976e-08 0)
(3 3.19959e-07 0)
(3 -2.38402e-06 0)
(2.99999 1.78931e-05 0)
(3.00031 0.000107903 0)
(2.99942 0.000913274 0)
(3.01157 0.00586517 0)
(3 1.4281e-16 0)
(3 1.73074e-16 0)
(3 2.97978e-17 0)
(3 -1.25086e-16 0)
(3 -6.44847e-16 0)
(3 -7.68871e-16 0)
(3 -7.29909e-16 0)
(3 -8.9678e-16 0)
(3 -9.50469e-16 0)
(3 -1.28001e-15 0)
(3 1.34885e-15 0)
(3 7.66997e-15 0)
(3 5.12724e-14 0)
(3 5.4229e-13 0)
(3 2.5166e-12 0)
(3 7.06537e-12 0)
(3 -4.34832e-12 0)
(3 -6.54462e-10 0)
(3 -1.5771e-08 0)
(3 -1.59767e-07 0)
(3 -1.87624e-06 0)
(3 -1.70488e-05 0)
(3.00002 4.11279e-06 0)
(3.00012 8.1211e-06 0)
(3.00063 0.00221829 0)
(3 -1.53957e-16 0)
(3 -2.56595e-16 0)
(3 -3.0495e-16 0)
(3 -2.99874e-16 0)
(3 -3.97792e-16 0)
(3 -4.12775e-16 0)
(3 -3.15567e-16 0)
(3 -3.35348e-16 0)
(3 -2.5668e-16 0)
(3 -1.80172e-16 0)
(3 7.94547e-16 0)
(3 2.37368e-15 0)
(3 1.97224e-14 0)
(3 2.13614e-13 0)
(3 7.21462e-13 0)
(3 7.45746e-12 0)
(3 4.07426e-12 0)
(3 3.15765e-10 0)
(3 1.12801e-09 0)
(3 1.03921e-08 0)
(3 -6.0113e-08 0)
(3 8.09937e-07 0)
(3.00001 9.33553e-06 0)
(2.99999 6.89292e-05 0)
(3.00048 0.000328532 0)
(3 -2.73229e-17 0)
(3 -7.61348e-17 0)
(3 -8.82811e-20 0)
(3 2.05314e-16 0)
(3 2.4923e-16 0)
(3 3.16724e-16 0)
(3 -1.76098e-16 0)
(3 -2.84364e-16 0)
(3 -3.5628e-16 0)
(3 -3.55159e-16 0)
(3 -4.51554e-16 0)
(3 1.29503e-15 0)
(3 -1.26574e-14 0)
(3 1.85942e-14 0)
(3 5.81599e-14 0)
(3 -7.27082e-13 0)
(3 -4.60749e-12 0)
(3 -1.51503e-10 0)
(3 -6.58157e-10 0)
(3 -1.09326e-08 0)
(3 -3.51113e-09 0)
(3 -7.35363e-07 0)
(3 1.15133e-06 0)
(3.00002 3.04199e-07 0)
(3.00003 0.000104128 0)
(3 1.53957e-16 0)
(3 2.56595e-16 0)
(3 1.53957e-16 0)
(3 1.53957e-16 0)
(3 2.05276e-16 0)
(3 2.96067e-16 0)
(3 7.77797e-17 0)
(3 -4.93524e-18 0)
(3 -9.86451e-18 0)
(3 -5.85266e-17 0)
(3 -1.77951e-16 0)
(3 -1.30699e-16 0)
(3 1.38746e-15 0)
(3 -1.1233e-14 0)
(3 4.52483e-14 0)
(3 4.99299e-13 0)
(3 1.8188e-12 0)
(3 1.87425e-11 0)
(3 1.7702e-10 0)
(3 7.1802e-11 0)
(3 5.9991e-09 0)
(3 6.13096e-08 0)
(3 3.78386e-07 0)
(3 4.44495e-06 0)
(2.99999 2.59872e-05 0)
(3 -1.02638e-16 0)
(3 -3.59232e-16 0)
(3 -4.85295e-16 0)
(3 -6.15827e-16 0)
(3 -6.67189e-16 0)
(3 5.13056e-17 0)
(3 4.51577e-16 0)
(3 6.98658e-16 0)
(3 8.47678e-16 0)
(3 1.06273e-15 0)
(3 7.92392e-16 0)
(3 1.08037e-15 0)
(3 6.37155e-16 0)
(3 3.43506e-16 0)
(3 1.26749e-14 0)
(3 6.42552e-14 0)
(3 -1.93912e-14 0)
(3 -3.41044e-12 0)
(3 -2.3714e-11 0)
(3 -3.15994e-10 0)
(3 3.32591e-11 0)
(3 6.65755e-10 0)
(3 1.12049e-07 0)
(3 1.09353e-06 0)
(2.99999 6.88101e-06 0)
(3 -1.02638e-16 0)
(3 -1.62673e-16 0)
(3 -1.31209e-16 0)
(3 -9.86256e-17 0)
(3 -1.70512e-16 0)
(3 -2.30598e-16 0)
(3 -1.79563e-16 0)
(3 -1.80425e-16 0)
(3 -1.97211e-16 0)
(3 -2.45241e-16 0)
(3 -5.68036e-16 0)
(3 -7.26165e-16 0)
(3 -1.10486e-15 0)
(3 -1.43677e-15 0)
(3 1.2888e-15 0)
(3 -8.6257e-15 0)
(3 2.31198e-13 0)
(3 1.17193e-12 0)
(3 2.14599e-12 0)
(3 5.21453e-11 0)
(3 1.12953e-09 0)
(3 6.76379e-09 0)
(3 -8.063e-09 0)
(3 3.10105e-07 0)
(3 4.94015e-07 0)
(3 2.56711e-17 0)
(3 -2.58464e-17 0)
(3 2.86666e-17 0)
(3 -1.2774e-16 0)
(3 7.67979e-17 0)
(3 -7.44243e-16 0)
(3 -9.66645e-16 0)
(3 -1.05763e-15 0)
(3 -1.09514e-15 0)
(3 -1.1018e-15 0)
(3 -1.04626e-15 0)
(3 -9.30046e-16 0)
(3 -8.4886e-16 0)
(3 -7.73302e-16 0)
(3 -5.70085e-16 0)
(3 -1.08563e-14 0)
(3 7.03247e-14 0)
(3 -8.46789e-14 0)
(3 1.68455e-12 0)
(3 2.67317e-11 0)
(3 -1.75637e-10 0)
(3 1.67495e-09 0)
(3 -4.80202e-09 0)
(3 1.22815e-07 0)
(3 -3.8019e-07 0)
(3 5.13189e-17 0)
(3 1.53957e-16 0)
(3 5.13186e-17 0)
(3 5.13207e-17 0)
(3 5.13189e-17 0)
(3 -2.56596e-16 0)
(3 -3.30863e-16 0)
(3 -8.21062e-16 0)
(3 -1.00739e-15 0)
(3 -8.84831e-16 0)
(3 -8.12165e-16 0)
(3 -5.57455e-16 0)
(3 -4.62645e-16 0)
(3 -6.08253e-16 0)
(3 -1.79674e-16 0)
(3 6.7925e-16 0)
(3 -4.34871e-16 0)
(3 1.25207e-13 0)
(3 3.35e-13 0)
(3 2.21158e-12 0)
(3 2.69937e-11 0)
(3 2.96708e-10 0)
(3 2.83168e-10 0)
(3 9.5785e-09 0)
(3 2.65598e-08 0)
(3 5.13189e-17 0)
(3 2.05276e-16 0)
(3 3.07913e-16 0)
(3 3.07913e-16 0)
(3 4.10551e-16 0)
(3 6.15827e-16 0)
(3 3.07914e-16 0)
(3 1.90478e-16 0)
(3 -5.13191e-17 0)
(3 -3.59233e-16 0)
(3 -6.64908e-16 0)
(3 -7.2306e-16 0)
(3 -1.22994e-15 0)
(3 -1.13827e-15 0)
(3 -1.15481e-15 0)
(3 -4.08788e-16 0)
(3 3.64682e-15 0)
(3 1.39395e-14 0)
(3 1.88141e-13 0)
(3 1.68112e-12 0)
(3 5.01763e-12 0)
(3 1.22309e-10 0)
(3 4.10339e-10 0)
(3 5.0677e-09 0)
(3 3.50293e-08 0)
(3 -5.13189e-17 0)
(3 -1.02638e-16 0)
(3 -3.07913e-16 0)
(3 -3.4968e-16 0)
(3 -4.77409e-16 0)
(3 -4.10551e-16 0)
(3 -2.05275e-16 0)
(3 -1.60947e-16 0)
(3 6.87182e-17 0)
(3 3.29041e-17 0)
(3 2.25291e-16 0)
(3 4.61893e-18 0)
(3 -5.64375e-17 0)
(3 5.18559e-16 0)
(3 5.28155e-16 0)
(3 1.13169e-15 0)
(3 2.2302e-15 0)
(3 6.19483e-15 0)
(3 2.77757e-14 0)
(3 2.22579e-13 0)
(3 5.52547e-13 0)
(3 1.16525e-11 0)
(3 -7.28096e-11 0)
(3 2.92133e-10 0)
(3 -1.0786e-08 0)
(3 -1.02638e-16 0)
(3 -2.56595e-16 0)
(3 -5.64508e-16 0)
(3 -7.18465e-16 0)
(3 -8.72421e-16 0)
(3 -1.01305e-15 0)
(3 -8.56524e-16 0)
(3 -1.02916e-15 0)
(3 -1.18116e-15 0)
(3 -1.07231e-15 0)
(3 -1.0786e-15 0)
(3 -7.82685e-16 0)
(3 -3.57456e-16 0)
(3 4.62438e-17 0)
(3 -2.58153e-17 0)
(3 1.9245e-16 0)
(3 6.04525e-16 0)
(3 5.18877e-15 0)
(3 5.21525e-14 0)
(3 3.52458e-13 0)
(3 4.47792e-12 0)
(3 2.40987e-11 0)
(3 4.18145e-10 0)
(3 1.2316e-09 0)
(3 4.07163e-08 0)
(1.20556 1.09999 0)
(0.341712 0.567526 0)
(-0.583221 -0.112151 0)
(-0.387717 -0.181333 0)
(-0.49133 -0.10048 0)
(-0.420921 0.00700448 0)
(-0.467739 0.068098 0)
(-0.46872 0.0770491 0)
(-0.504834 0.0560834 0)
(-0.554918 0.0787688 0)
(-0.713398 0.0343622 0)
(-0.977408 0.00130018 0)
(-1.15563 -0.0146102 0)
(-1.2655 -0.0154304 0)
(-1.31836 -0.0191565 0)
(-1.34165 -0.0134766 0)
(-1.35317 -0.0135628 0)
(-1.36187 -0.0108817 0)
(-1.40629 -0.00761384 0)
(-1.44856 -0.00320662 0)
(-1.47565 0.00781764 0)
(-1.49317 0.00877898 0)
(-1.50312 0.00471445 0)
(-1.50958 -0.00133577 0)
(-1.51559 -0.00392337 0)
(-1.52253 -0.00608389 0)
(-1.52853 -0.00491603 0)
(-1.53353 -0.00315926 0)
(-1.53691 -0.00118663 0)
(-1.50798 0.00230077 0)
(-1.47968 0.00355598 0)
(-1.437 0.00743208 0)
(-1.39235 0.0140498 0)
(-1.33722 0.0163249 0)
(-1.27557 0.0180736 0)
(-1.21123 0.0115156 0)
(-1.14609 0.00727741 0)
(-1.0785 -0.00657473 0)
(-1.00137 -0.0205361 0)
(-0.921357 -0.0361495 0)
(-0.839032 -0.0482155 0)
(-0.758678 -0.0544441 0)
(-0.681033 -0.0436684 0)
(-0.597248 -0.0346567 0)
(-0.508525 -0.0324766 0)
(-0.423253 -0.0235293 0)
(-0.343942 -0.0199682 0)
(-0.266502 -0.0160527 0)
(-0.186661 -0.0198753 0)
(-0.0869712 -0.0322398 0)
(0.0183096 -0.0293251 0)
(0.105587 -0.0265604 0)
(0.191393 -0.0263763 0)
(0.267316 -0.0250118 0)
(0.335687 -0.024065 0)
(0.398523 -0.0222916 0)
(0.454693 -0.0206124 0)
(0.504878 -0.0191465 0)
(0.551151 -0.0181194 0)
(0.592856 -0.0166789 0)
(0.630074 -0.015356 0)
(0.663414 -0.0140573 0)
(0.693371 -0.0128061 0)
(0.720291 -0.0116364 0)
(0.7442 -0.0102553 0)
(0.765422 -0.00867586 0)
(0.78431 -0.00763782 0)
(0.800759 -0.00661109 0)
(0.815031 -0.00599769 0)
(0.827792 -0.00469403 0)
(0.838725 -0.00364221 0)
(0.84897 -0.00315452 0)
(0.857794 -0.00303197 0)
(0.866074 -0.00248219 0)
(0.873623 -0.00230388 0)
(0.879432 -0.00199131 0)
(0.884877 -0.00129487 0)
(0.887633 -0.000484258 0)
(0.890025 0.000413277 0)
(0.889498 0.000982041 0)
(0.887274 0.00146623 0)
(0.883529 0.00187557 0)
(0.878494 0.00226122 0)
(0.872494 0.00254613 0)
(0.868253 0.00256059 0)
(0.865817 0.00284693 0)
(0.866712 0.00279066 0)
(0.868139 0.00320859 0)
(0.869791 0.00392535 0)
(0.871615 0.00412586 0)
(0.873663 0.0038761 0)
(0.875948 0.00392045 0)
(0.87847 0.00384749 0)
(0.88117 0.00361313 0)
(0.883528 0.00309748 0)
(0.886151 0.00280459 0)
(0.887026 0.00275714 0)
(0.887828 0.00258938 0)
(0.888458 0.00220543 0)
(0.88946 0.001799 0)
(1.2304 1.01983 0)
(1.10988 0.779224 0)
(0.663231 0.548813 0)
(0.506004 0.229962 0)
(-0.0357978 0.0921501 0)
(-0.155992 -0.00157249 0)
(-0.328397 -0.0316953 0)
(-0.297981 -0.0522241 0)
(-0.319411 0.00309671 0)
(-0.371692 0.0443358 0)
(-0.556647 0.157324 0)
(-0.813256 0.193153 0)
(-0.994599 0.14491 0)
(-1.10276 0.0997344 0)
(-1.15607 0.0755299 0)
(-1.17504 0.0568745 0)
(-1.18481 0.0523281 0)
(-1.18748 0.0344689 0)
(-1.20122 0.00571144 0)
(-1.26026 0.00401956 0)
(-1.30229 0.000434191 0)
(-1.32881 -0.00272887 0)
(-1.3395 -0.00693242 0)
(-1.3427 -0.013028 0)
(-1.34459 -0.0140896 0)
(-1.34701 -0.0112198 0)
(-1.34953 -0.00425017 0)
(-1.35124 0.000575253 0)
(-1.35169 0.00507707 0)
(-1.30917 0.00216639 0)
(-1.26741 -0.00110491 0)
(-1.20759 -0.00706727 0)
(-1.14815 -0.0117262 0)
(-1.07461 -0.0194153 0)
(-0.998315 -0.0308854 0)
(-0.91782 -0.0480901 0)
(-0.845517 -0.0484918 0)
(-0.773495 -0.0428022 0)
(-0.690046 -0.046633 0)
(-0.606146 -0.037285 0)
(-0.516918 -0.0358339 0)
(-0.435292 -0.0326328 0)
(-0.366176 -0.0424809 0)
(-0.257949 -0.0703113 0)
(-0.159007 -0.0858643 0)
(-0.0602808 -0.0934535 0)
(0.0516442 -0.0958914 0)
(0.142878 -0.10151 0)
(0.259429 -0.117829 0)
(0.35503 -0.131207 0)
(0.437953 -0.123729 0)
(0.511929 -0.112784 0)
(0.58106 -0.105968 0)
(0.643913 -0.0956298 0)
(0.699253 -0.085105 0)
(0.750424 -0.0778911 0)
(0.794647 -0.0680151 0)
(0.833072 -0.0610783 0)
(0.867072 -0.0549778 0)
(0.896996 -0.0478586 0)
(0.923103 -0.0417761 0)
(0.945472 -0.0362338 0)
(0.964377 -0.031578 0)
(0.980611 -0.0273889 0)
(0.994533 -0.0236181 0)
(1.00582 -0.0203418 0)
(1.01523 -0.0171372 0)
(1.02314 -0.013891 0)
(1.03015 -0.0107888 0)
(1.03687 -0.00845313 0)
(1.04153 -0.00638105 0)
(1.04487 -0.00402249 0)
(1.04732 -0.00108273 0)
(1.04945 0.000240096 0)
(1.05065 0.00289787 0)
(1.05033 0.00408422 0)
(1.04877 0.00533942 0)
(1.04542 0.00639627 0)
(1.04071 0.00766965 0)
(1.03438 0.00906327 0)
(1.02612 0.0103965 0)
(1.01636 0.0108204 0)
(1.00535 0.0120926 0)
(0.993424 0.0118525 0)